MODEL 1
REMARK VINA RESULT:    -5.830      0.000      0.000
REMARK INTER + INTRA:          -6.770
REMARK INTER:                  -6.511
REMARK INTRA:                  -0.259
REMARK UNBOUND:                -0.259
REMARK  Name = 
REMARK  3 active torsions:
REMARK  status: ('A' for Active; 'I' for Inactive)
REMARK    1  A    between atoms: C_4  and  C_5
REMARK    2  A    between atoms: C_14  and  O_15
REMARK    3  A    between atoms: C_16  and  O_17
REMARK                            x       y       z     vdW  Elec       q    Type
REMARK                         _______ _______ _______ _____ _____    ______ ____
ROOT
ATOM      1  O   UNL     1      18.122   1.698 -29.976  0.00  0.00    -0.287 OA
ATOM      2  C   UNL     1      18.794   1.529 -28.969  0.00  0.00    +0.193 A 
ATOM      3  C   UNL     1      20.149   2.095 -28.858  0.00  0.00    +0.098 A 
ATOM      4  C   UNL     1      20.863   1.879 -27.744  0.00  0.00    +0.139 A 
ATOM      5  O   UNL     1      20.404   1.160 -26.650  0.00  0.00    -0.454 OA
ATOM      6  C   UNL     1      19.147   0.611 -26.709  0.00  0.00    +0.143 A 
ATOM      7  C   UNL     1      18.716  -0.109 -25.594  0.00  0.00    +0.096 A 
ATOM      8  C   UNL     1      17.447  -0.672 -25.606  0.00  0.00    +0.162 A 
ATOM      9  C   UNL     1      16.625  -0.552 -26.725  0.00  0.00    +0.159 A 
ATOM     10  C   UNL     1      17.037   0.177 -27.831  0.00  0.00    +0.064 A 
ATOM     11  C   UNL     1      18.308   0.758 -27.815  0.00  0.00    +0.068 A 
ENDROOT
BRANCH   4  12
ATOM     12  C   UNL     1      22.222   2.430 -27.576  0.00  0.00    +0.017 A 
ATOM     13  C   UNL     1      23.316   1.605 -27.274  0.00  0.00    +0.011 A 
ATOM     14  C   UNL     1      24.594   2.146 -27.109  0.00  0.00    +0.001 A 
ATOM     15  C   UNL     1      24.793   3.519 -27.239  0.00  0.00    +0.000 A 
ATOM     16  C   UNL     1      23.716   4.352 -27.529  0.00  0.00    +0.001 A 
ATOM     17  C   UNL     1      22.437   3.811 -27.694  0.00  0.00    +0.011 A 
ENDBRANCH   4  12
BRANCH   8  18
ATOM     18  O   UNL     1      17.006  -1.321 -24.489  0.00  0.00    -0.503 OA
ATOM     19  H   UNL     1      16.933  -2.264 -24.729  0.00  0.00    +0.292 HD
ENDBRANCH   8  18
BRANCH   9  20
ATOM     20  O   UNL     1      15.410  -1.172 -26.758  0.00  0.00    -0.503 OA
ATOM     21  H   UNL     1      14.869  -0.758 -26.061  0.00  0.00    +0.292 HD
ENDBRANCH   9  20
TORSDOF 3
ENDMDL
MODEL 2
REMARK VINA RESULT:    -5.385      3.201      6.364
REMARK INTER + INTRA:          -6.273
REMARK INTER:                  -5.987
REMARK INTRA:                  -0.286
REMARK UNBOUND:                -0.259
REMARK  Name = 
REMARK  3 active torsions:
REMARK  status: ('A' for Active; 'I' for Inactive)
REMARK    1  A    between atoms: C_4  and  C_5
REMARK    2  A    between atoms: C_14  and  O_15
REMARK    3  A    between atoms: C_16  and  O_17
REMARK                            x       y       z     vdW  Elec       q    Type
REMARK                         _______ _______ _______ _____ _____    ______ ____
ROOT
ATOM      1  O   UNL     1      20.229   4.341 -28.821  0.00  0.00    -0.287 OA
ATOM      2  C   UNL     1      19.469   3.403 -29.022  0.00  0.00    +0.193 A 
ATOM      3  C   UNL     1      19.210   2.401 -27.976  0.00  0.00    +0.098 A 
ATOM      4  C   UNL     1      18.381   1.379 -28.234  0.00  0.00    +0.139 A 
ATOM      5  O   UNL     1      17.717   1.199 -29.438  0.00  0.00    -0.454 OA
ATOM      6  C   UNL     1      17.929   2.108 -30.445  0.00  0.00    +0.143 A 
ATOM      7  C   UNL     1      17.249   1.897 -31.645  0.00  0.00    +0.096 A 
ATOM      8  C   UNL     1      17.426   2.798 -32.686  0.00  0.00    +0.162 A 
ATOM      9  C   UNL     1      18.295   3.879 -32.553  0.00  0.00    +0.159 A 
ATOM     10  C   UNL     1      18.963   4.108 -31.358  0.00  0.00    +0.064 A 
ATOM     11  C   UNL     1      18.774   3.210 -30.303  0.00  0.00    +0.068 A 
ENDROOT
BRANCH   4  12
ATOM     12  C   UNL     1      18.079   0.351 -27.220  0.00  0.00    +0.017 A 
ATOM     13  C   UNL     1      16.867  -0.357 -27.229  0.00  0.00    +0.011 A 
ATOM     14  C   UNL     1      16.595  -1.320 -26.254  0.00  0.00    +0.001 A 
ATOM     15  C   UNL     1      17.528  -1.584 -25.254  0.00  0.00    +0.000 A 
ATOM     16  C   UNL     1      18.731  -0.884 -25.225  0.00  0.00    +0.001 A 
ATOM     17  C   UNL     1      19.004   0.080 -26.200  0.00  0.00    +0.011 A 
ENDBRANCH   4  12
BRANCH   8  18
ATOM     18  O   UNL     1      16.710   2.623 -33.835  0.00  0.00    -0.503 OA
ATOM     19  H   UNL     1      16.083   1.897 -33.662  0.00  0.00    +0.292 HD
ENDBRANCH   8  18
BRANCH   9  20
ATOM     20  O   UNL     1      18.522   4.716 -33.606  0.00  0.00    -0.503 OA
ATOM     21  H   UNL     1      17.749   5.308 -33.659  0.00  0.00    +0.292 HD
ENDBRANCH   9  20
TORSDOF 3
ENDMDL
MODEL 3
REMARK VINA RESULT:    -5.287      2.337      6.639
REMARK INTER + INTRA:          -6.164
REMARK INTER:                  -5.903
REMARK INTRA:                  -0.261
REMARK UNBOUND:                -0.259
REMARK  Name = 
REMARK  3 active torsions:
REMARK  status: ('A' for Active; 'I' for Inactive)
REMARK    1  A    between atoms: C_4  and  C_5
REMARK    2  A    between atoms: C_14  and  O_15
REMARK    3  A    between atoms: C_16  and  O_17
REMARK                            x       y       z     vdW  Elec       q    Type
REMARK                         _______ _______ _______ _____ _____    ______ ____
ROOT
ATOM      1  O   UNL     1      20.046   5.233 -26.830  0.00  0.00    -0.287 OA
ATOM      2  C   UNL     1      20.337   4.046 -26.886  0.00  0.00    +0.193 A 
ATOM      3  C   UNL     1      19.342   3.007 -26.572  0.00  0.00    +0.098 A 
ATOM      4  C   UNL     1      19.699   1.716 -26.632  0.00  0.00    +0.139 A 
ATOM      5  O   UNL     1      20.961   1.271 -26.994  0.00  0.00    -0.454 OA
ATOM      6  C   UNL     1      21.922   2.204 -27.294  0.00  0.00    +0.143 A 
ATOM      7  C   UNL     1      23.182   1.724 -27.653  0.00  0.00    +0.096 A 
ATOM      8  C   UNL     1      24.182   2.633 -27.975  0.00  0.00    +0.162 A 
ATOM      9  C   UNL     1      23.945   4.005 -27.910  0.00  0.00    +0.159 A 
ATOM     10  C   UNL     1      22.691   4.492 -27.572  0.00  0.00    +0.064 A 
ATOM     11  C   UNL     1      21.679   3.578 -27.262  0.00  0.00    +0.068 A 
ENDROOT
BRANCH   4  12
ATOM     12  C   UNL     1      18.740   0.634 -26.335  0.00  0.00    +0.017 A 
ATOM     13  C   UNL     1      17.503   0.548 -26.991  0.00  0.00    +0.011 A 
ATOM     14  C   UNL     1      16.604  -0.478 -26.690  0.00  0.00    +0.001 A 
ATOM     15  C   UNL     1      16.927  -1.429 -25.724  0.00  0.00    +0.000 A 
ATOM     16  C   UNL     1      18.147  -1.353 -25.058  0.00  0.00    +0.001 A 
ATOM     17  C   UNL     1      19.047  -0.326 -25.359  0.00  0.00    +0.011 A 
ENDBRANCH   4  12
BRANCH   8  18
ATOM     18  O   UNL     1      25.394   2.158 -28.386  0.00  0.00    -0.503 OA
ATOM     19  H   UNL     1      25.845   1.826 -27.587  0.00  0.00    +0.292 HD
ENDBRANCH   8  18
BRANCH   9  20
ATOM     20  O   UNL     1      24.954   4.891 -28.154  0.00  0.00    -0.503 OA
ATOM     21  H   UNL     1      24.990   5.486 -27.383  0.00  0.00    +0.292 HD
ENDBRANCH   9  20
TORSDOF 3
ENDMDL
MODEL 4
REMARK VINA RESULT:    -4.925      9.287     12.224
REMARK INTER + INTRA:          -5.759
REMARK INTER:                  -5.468
REMARK INTRA:                  -0.291
REMARK UNBOUND:                -0.259
REMARK  Name = 
REMARK  3 active torsions:
REMARK  status: ('A' for Active; 'I' for Inactive)
REMARK    1  A    between atoms: C_4  and  C_5
REMARK    2  A    between atoms: C_14  and  O_15
REMARK    3  A    between atoms: C_16  and  O_17
REMARK                            x       y       z     vdW  Elec       q    Type
REMARK                         _______ _______ _______ _____ _____    ______ ____
ROOT
ATOM      1  O   UNL     1      17.534   4.302 -14.389  0.00  0.00    -0.287 OA
ATOM      2  C   UNL     1      17.664   3.755 -15.475  0.00  0.00    +0.193 A 
ATOM      3  C   UNL     1      16.873   2.563 -15.822  0.00  0.00    +0.098 A 
ATOM      4  C   UNL     1      17.050   1.981 -17.017  0.00  0.00    +0.139 A 
ATOM      5  O   UNL     1      17.931   2.439 -17.985  0.00  0.00    -0.454 OA
ATOM      6  C   UNL     1      18.692   3.546 -17.705  0.00  0.00    +0.143 A 
ATOM      7  C   UNL     1      19.571   3.980 -18.698  0.00  0.00    +0.096 A 
ATOM      8  C   UNL     1      20.353   5.104 -18.462  0.00  0.00    +0.162 A 
ATOM      9  C   UNL     1      20.289   5.771 -17.239  0.00  0.00    +0.159 A 
ATOM     10  C   UNL     1      19.405   5.359 -16.253  0.00  0.00    +0.064 A 
ATOM     11  C   UNL     1      18.606   4.237 -16.495  0.00  0.00    +0.068 A 
ENDROOT
BRANCH   4  12
ATOM     12  C   UNL     1      16.278   0.790 -17.420  0.00  0.00    +0.017 A 
ATOM     13  C   UNL     1      15.607  -0.004 -16.478  0.00  0.00    +0.011 A 
ATOM     14  C   UNL     1      14.889  -1.134 -16.877  0.00  0.00    +0.001 A 
ATOM     15  C   UNL     1      14.837  -1.488 -18.223  0.00  0.00    +0.000 A 
ATOM     16  C   UNL     1      15.504  -0.717 -19.171  0.00  0.00    +0.001 A 
ATOM     17  C   UNL     1      16.223   0.414 -18.771  0.00  0.00    +0.011 A 
ENDBRANCH   4  12
BRANCH   8  18
ATOM     18  O   UNL     1      21.165   5.561 -19.458  0.00  0.00    -0.503 OA
ATOM     19  H   UNL     1      20.980   6.514 -19.550  0.00  0.00    +0.292 HD
ENDBRANCH   8  18
BRANCH   9  20
ATOM     20  O   UNL     1      21.115   6.828 -16.987  0.00  0.00    -0.503 OA
ATOM     21  H   UNL     1      22.022   6.516 -17.160  0.00  0.00    +0.292 HD
ENDBRANCH   9  20
TORSDOF 3
ENDMDL
MODEL 5
REMARK VINA RESULT:    -4.800     10.140     12.657
REMARK INTER + INTRA:          -5.620
REMARK INTER:                  -5.333
REMARK INTRA:                  -0.287
REMARK UNBOUND:                -0.259
REMARK  Name = 
REMARK  3 active torsions:
REMARK  status: ('A' for Active; 'I' for Inactive)
REMARK    1  A    between atoms: C_4  and  C_5
REMARK    2  A    between atoms: C_14  and  O_15
REMARK    3  A    between atoms: C_16  and  O_17
REMARK                            x       y       z     vdW  Elec       q    Type
REMARK                         _______ _______ _______ _____ _____    ______ ____
ROOT
ATOM      1  O   UNL     1      17.705   5.316 -18.848  0.00  0.00    -0.287 OA
ATOM      2  C   UNL     1      17.697   4.461 -17.974  0.00  0.00    +0.193 A 
ATOM      3  C   UNL     1      16.952   3.204 -18.152  0.00  0.00    +0.098 A 
ATOM      4  C   UNL     1      16.954   2.293 -17.167  0.00  0.00    +0.139 A 
ATOM      5  O   UNL     1      17.638   2.441 -15.970  0.00  0.00    -0.454 OA
ATOM      6  C   UNL     1      18.345   3.598 -15.759  0.00  0.00    +0.143 A 
ATOM      7  C   UNL     1      19.019   3.717 -14.543  0.00  0.00    +0.096 A 
ATOM      8  C   UNL     1      19.757   4.866 -14.292  0.00  0.00    +0.162 A 
ATOM      9  C   UNL     1      19.797   5.904 -15.222  0.00  0.00    +0.159 A 
ATOM     10  C   UNL     1      19.145   5.788 -16.441  0.00  0.00    +0.064 A 
ATOM     11  C   UNL     1      18.415   4.625 -16.702  0.00  0.00    +0.068 A 
ENDROOT
BRANCH   4  12
ATOM     12  C   UNL     1      16.232   1.013 -17.295  0.00  0.00    +0.017 A 
ATOM     13  C   UNL     1      15.838   0.276 -16.168  0.00  0.00    +0.011 A 
ATOM     14  C   UNL     1      15.163  -0.940 -16.309  0.00  0.00    +0.001 A 
ATOM     15  C   UNL     1      14.878  -1.437 -17.579  0.00  0.00    +0.000 A 
ATOM     16  C   UNL     1      15.270  -0.722 -18.708  0.00  0.00    +0.001 A 
ATOM     17  C   UNL     1      15.946   0.494 -18.567  0.00  0.00    +0.011 A 
ENDBRANCH   4  12
BRANCH   8  18
ATOM     18  O   UNL     1      20.465   4.951 -13.128  0.00  0.00    -0.503 OA
ATOM     19  H   UNL     1      21.406   4.871 -13.372  0.00  0.00    +0.292 HD
ENDBRANCH   8  18
BRANCH   9  20
ATOM     20  O   UNL     1      20.461   7.061 -14.935  0.00  0.00    -0.503 OA
ATOM     21  H   UNL     1      19.882   7.570 -14.338  0.00  0.00    +0.292 HD
ENDBRANCH   9  20
TORSDOF 3
ENDMDL
MODEL 6
REMARK VINA RESULT:    -4.790      2.161      3.477
REMARK INTER + INTRA:          -5.609
REMARK INTER:                  -5.361
REMARK INTRA:                  -0.248
REMARK UNBOUND:                -0.259
REMARK  Name = 
REMARK  3 active torsions:
REMARK  status: ('A' for Active; 'I' for Inactive)
REMARK    1  A    between atoms: C_4  and  C_5
REMARK    2  A    between atoms: C_14  and  O_15
REMARK    3  A    between atoms: C_16  and  O_17
REMARK                            x       y       z     vdW  Elec       q    Type
REMARK                         _______ _______ _______ _____ _____    ______ ____
ROOT
ATOM      1  O   UNL     1      21.522   4.090 -24.896  0.00  0.00    -0.287 OA
ATOM      2  C   UNL     1      21.777   3.275 -25.772  0.00  0.00    +0.193 A 
ATOM      3  C   UNL     1      23.139   3.149 -26.315  0.00  0.00    +0.098 A 
ATOM      4  C   UNL     1      23.381   2.255 -27.285  0.00  0.00    +0.139 A 
ATOM      5  O   UNL     1      22.424   1.403 -27.816  0.00  0.00    -0.454 OA
ATOM      6  C   UNL     1      21.139   1.486 -27.341  0.00  0.00    +0.143 A 
ATOM      7  C   UNL     1      20.199   0.618 -27.899  0.00  0.00    +0.096 A 
ATOM      8  C   UNL     1      18.889   0.660 -27.441  0.00  0.00    +0.162 A 
ATOM      9  C   UNL     1      18.505   1.577 -26.464  0.00  0.00    +0.159 A 
ATOM     10  C   UNL     1      19.435   2.432 -25.891  0.00  0.00    +0.064 A 
ATOM     11  C   UNL     1      20.758   2.381 -26.340  0.00  0.00    +0.068 A 
ENDROOT
BRANCH   4  12
ATOM     12  C   UNL     1      24.729   2.080 -27.859  0.00  0.00    +0.017 A 
ATOM     13  C   UNL     1      25.705   1.301 -27.220  0.00  0.00    +0.011 A 
ATOM     14  C   UNL     1      26.979   1.156 -27.774  0.00  0.00    +0.001 A 
ATOM     15  C   UNL     1      27.296   1.792 -28.972  0.00  0.00    +0.000 A 
ATOM     16  C   UNL     1      26.342   2.577 -29.614  0.00  0.00    +0.001 A 
ATOM     17  C   UNL     1      25.067   2.722 -29.060  0.00  0.00    +0.011 A 
ENDBRANCH   4  12
BRANCH   8  18
ATOM     18  O   UNL     1      17.988  -0.234 -27.943  0.00  0.00    -0.503 OA
ATOM     19  H   UNL     1      17.218   0.287 -28.239  0.00  0.00    +0.292 HD
ENDBRANCH   8  18
BRANCH   9  20
ATOM     20  O   UNL     1      17.200   1.664 -26.074  0.00  0.00    -0.503 OA
ATOM     21  H   UNL     1      17.122   1.144 -25.254  0.00  0.00    +0.292 HD
ENDBRANCH   9  20
TORSDOF 3
ENDMDL
MODEL 7
REMARK VINA RESULT:    -4.775      8.245     10.364
REMARK INTER + INTRA:          -5.592
REMARK INTER:                  -5.316
REMARK INTRA:                  -0.276
REMARK UNBOUND:                -0.259
REMARK  Name = 
REMARK  3 active torsions:
REMARK  status: ('A' for Active; 'I' for Inactive)
REMARK    1  A    between atoms: C_4  and  C_5
REMARK    2  A    between atoms: C_14  and  O_15
REMARK    3  A    between atoms: C_16  and  O_17
REMARK                            x       y       z     vdW  Elec       q    Type
REMARK                         _______ _______ _______ _____ _____    ______ ____
ROOT
ATOM      1  O   UNL     1      22.736   3.506 -20.271  0.00  0.00    -0.287 OA
ATOM      2  C   UNL     1      23.938   3.300 -20.174  0.00  0.00    +0.193 A 
ATOM      3  C   UNL     1      24.719   2.815 -21.323  0.00  0.00    +0.098 A 
ATOM      4  C   UNL     1      26.033   2.587 -21.177  0.00  0.00    +0.139 A 
ATOM      5  O   UNL     1      26.735   2.798 -19.999  0.00  0.00    -0.454 OA
ATOM      6  C   UNL     1      26.047   3.248 -18.900  0.00  0.00    +0.143 A 
ATOM      7  C   UNL     1      26.781   3.447 -17.730  0.00  0.00    +0.096 A 
ATOM      8  C   UNL     1      26.128   3.913 -16.596  0.00  0.00    +0.162 A 
ATOM      9  C   UNL     1      24.754   4.146 -16.612  0.00  0.00    +0.159 A 
ATOM     10  C   UNL     1      24.018   3.969 -17.774  0.00  0.00    +0.064 A 
ATOM     11  C   UNL     1      24.677   3.515 -18.921  0.00  0.00    +0.068 A 
ENDROOT
BRANCH   4  12
ATOM     12  C   UNL     1      26.865   2.109 -22.297  0.00  0.00    +0.017 A 
ATOM     13  C   UNL     1      27.913   1.197 -22.097  0.00  0.00    +0.011 A 
ATOM     14  C   UNL     1      28.697   0.763 -23.169  0.00  0.00    +0.001 A 
ATOM     15  C   UNL     1      28.447   1.238 -24.454  0.00  0.00    +0.000 A 
ATOM     16  C   UNL     1      27.417   2.150 -24.669  0.00  0.00    +0.001 A 
ATOM     17  C   UNL     1      26.633   2.585 -23.596  0.00  0.00    +0.011 A 
ENDBRANCH   4  12
BRANCH   8  18
ATOM     18  O   UNL     1      26.861   4.166 -15.473  0.00  0.00    -0.503 OA
ATOM     19  H   UNL     1      26.390   3.736 -14.734  0.00  0.00    +0.292 HD
ENDBRANCH   8  18
BRANCH   9  20
ATOM     20  O   UNL     1      24.107   4.530 -15.473  0.00  0.00    -0.503 OA
ATOM     21  H   UNL     1      24.760   5.015 -14.935  0.00  0.00    +0.292 HD
ENDBRANCH   9  20
TORSDOF 3
ENDMDL
MODEL 8
REMARK VINA RESULT:    -4.701      3.892      6.299
REMARK INTER + INTRA:          -5.510
REMARK INTER:                  -5.218
REMARK INTRA:                  -0.292
REMARK UNBOUND:                -0.259
REMARK  Name = 
REMARK  3 active torsions:
REMARK  status: ('A' for Active; 'I' for Inactive)
REMARK    1  A    between atoms: C_4  and  C_5
REMARK    2  A    between atoms: C_14  and  O_15
REMARK    3  A    between atoms: C_16  and  O_17
REMARK                            x       y       z     vdW  Elec       q    Type
REMARK                         _______ _______ _______ _____ _____    ______ ____
ROOT
ATOM      1  O   UNL     1      17.807   4.814 -29.469  0.00  0.00    -0.287 OA
ATOM      2  C   UNL     1      17.078   3.936 -29.030  0.00  0.00    +0.193 A 
ATOM      3  C   UNL     1      17.619   2.845 -28.204  0.00  0.00    +0.098 A 
ATOM      4  C   UNL     1      16.793   1.891 -27.750  0.00  0.00    +0.139 A 
ATOM      5  O   UNL     1      15.427   1.863 -27.989  0.00  0.00    -0.454 OA
ATOM      6  C   UNL     1      14.878   2.860 -28.757  0.00  0.00    +0.143 A 
ATOM      7  C   UNL     1      13.502   2.802 -28.982  0.00  0.00    +0.096 A 
ATOM      8  C   UNL     1      12.902   3.796 -29.743  0.00  0.00    +0.162 A 
ATOM      9  C   UNL     1      13.663   4.819 -30.306  0.00  0.00    +0.159 A 
ATOM     10  C   UNL     1      15.029   4.896 -30.074  0.00  0.00    +0.064 A 
ATOM     11  C   UNL     1      15.632   3.905 -29.294  0.00  0.00    +0.068 A 
ENDROOT
BRANCH   4  12
ATOM     12  C   UNL     1      17.281   0.779 -26.911  0.00  0.00    +0.017 A 
ATOM     13  C   UNL     1      16.477  -0.336 -26.630  0.00  0.00    +0.011 A 
ATOM     14  C   UNL     1      16.952  -1.375 -25.826  0.00  0.00    +0.001 A 
ATOM     15  C   UNL     1      18.235  -1.310 -25.287  0.00  0.00    +0.000 A 
ATOM     16  C   UNL     1      19.042  -0.206 -25.548  0.00  0.00    +0.001 A 
ATOM     17  C   UNL     1      18.567   0.834 -26.353  0.00  0.00    +0.011 A 
ENDBRANCH   4  12
BRANCH   8  18
ATOM     18  O   UNL     1      11.547   3.770 -29.909  0.00  0.00    -0.503 OA
ATOM     19  H   UNL     1      11.387   3.744 -30.870  0.00  0.00    +0.292 HD
ENDBRANCH   8  18
BRANCH   9  20
ATOM     20  O   UNL     1      13.078   5.748 -31.116  0.00  0.00    -0.503 OA
ATOM     21  H   UNL     1      12.129   5.752 -30.891  0.00  0.00    +0.292 HD
ENDBRANCH   9  20
TORSDOF 3
ENDMDL
MODEL 9
REMARK VINA RESULT:    -4.650      7.698     10.149
REMARK INTER + INTRA:          -5.452
REMARK INTER:                  -5.160
REMARK INTRA:                  -0.292
REMARK UNBOUND:                -0.259
REMARK  Name = 
REMARK  3 active torsions:
REMARK  status: ('A' for Active; 'I' for Inactive)
REMARK    1  A    between atoms: C_4  and  C_5
REMARK    2  A    between atoms: C_14  and  O_15
REMARK    3  A    between atoms: C_16  and  O_17
REMARK                            x       y       z     vdW  Elec       q    Type
REMARK                         _______ _______ _______ _____ _____    ______ ____
ROOT
ATOM      1  O   UNL     1      22.757   3.529 -18.875  0.00  0.00    -0.287 OA
ATOM      2  C   UNL     1      23.752   3.322 -19.556  0.00  0.00    +0.193 A 
ATOM      3  C   UNL     1      23.642   3.086 -21.005  0.00  0.00    +0.098 A 
ATOM      4  C   UNL     1      24.752   2.850 -21.719  0.00  0.00    +0.139 A 
ATOM      5  O   UNL     1      26.032   2.828 -21.186  0.00  0.00    -0.454 OA
ATOM      6  C   UNL     1      26.183   3.041 -19.839  0.00  0.00    +0.143 A 
ATOM      7  C   UNL     1      27.484   3.010 -19.333  0.00  0.00    +0.096 A 
ATOM      8  C   UNL     1      27.684   3.231 -17.977  0.00  0.00    +0.162 A 
ATOM      9  C   UNL     1      26.604   3.447 -17.123  0.00  0.00    +0.159 A 
ATOM     10  C   UNL     1      25.309   3.497 -17.619  0.00  0.00    +0.064 A 
ATOM     11  C   UNL     1      25.106   3.290 -18.986  0.00  0.00    +0.068 A 
ENDROOT
BRANCH   4  12
ATOM     12  C   UNL     1      24.701   2.615 -23.175  0.00  0.00    +0.017 A 
ATOM     13  C   UNL     1      23.498   2.301 -23.827  0.00  0.00    +0.011 A 
ATOM     14  C   UNL     1      23.471   2.073 -25.205  0.00  0.00    +0.001 A 
ATOM     15  C   UNL     1      24.646   2.150 -25.949  0.00  0.00    +0.000 A 
ATOM     16  C   UNL     1      25.849   2.451 -25.316  0.00  0.00    +0.001 A 
ATOM     17  C   UNL     1      25.877   2.679 -23.937  0.00  0.00    +0.011 A 
ENDBRANCH   4  12
BRANCH   8  18
ATOM     18  O   UNL     1      28.962   3.263 -17.498  0.00  0.00    -0.503 OA
ATOM     19  H   UNL     1      29.020   2.563 -16.822  0.00  0.00    +0.292 HD
ENDBRANCH   8  18
BRANCH   9  20
ATOM     20  O   UNL     1      26.803   3.587 -15.781  0.00  0.00    -0.503 OA
ATOM     21  H   UNL     1      26.895   4.543 -15.614  0.00  0.00    +0.292 HD
ENDBRANCH   9  20
TORSDOF 3
ENDMDL
