MODEL 1
REMARK VINA RESULT:    -4.588      0.000      0.000
REMARK INTER + INTRA:          -7.943
REMARK INTER:                  -6.198
REMARK INTRA:                  -1.746
REMARK UNBOUND:                -1.746
REMARK  Name = 
REMARK  8 active torsions:
REMARK  status: ('A' for Active; 'I' for Inactive)
REMARK    1  A    between atoms: C_1  and  O_2
REMARK    2  A    between atoms: O_2  and  C_3
REMARK    3  A    between atoms: C_8  and  O_9
REMARK    4  A    between atoms: O_9  and  C_10
REMARK    5  A    between atoms: C_12  and  C_13
REMARK    6  A    between atoms: C_13  and  C_14
REMARK    7  A    between atoms: C_14  and  C_16
REMARK    8  A    between atoms: C_16  and  C_17
REMARK                            x       y       z     vdW  Elec       q    Type
REMARK                         _______ _______ _______ _____ _____    ______ ____
ROOT
ATOM      1  C   UNL     1      22.617   3.125 -25.862  0.00  0.00    +0.162 A 
ATOM      2  C   UNL     1      21.478   2.450 -25.404  0.00  0.00    +0.053 A 
ATOM      3  C   UNL     1      20.722   1.726 -26.313  0.00  0.00    -0.040 A 
ATOM      4  C   UNL     1      21.072   1.675 -27.662  0.00  0.00    -0.040 A 
ATOM      5  C   UNL     1      22.187   2.345 -28.140  0.00  0.00    +0.053 A 
ATOM      6  C   UNL     1      22.973   3.073 -27.236  0.00  0.00    +0.162 A 
ATOM      7  C   UNL     1      20.080   0.869 -28.448  0.00  0.00    +0.039 C 
ATOM      8  C   UNL     1      19.383   0.080 -27.318  0.00  0.00    +0.005 C 
ATOM      9  C   UNL     1      19.460   0.960 -26.052  0.00  0.00    +0.039 C 
ENDROOT
BRANCH   1  11
ATOM     10  C   UNL     1      22.921   5.050 -24.480  0.00  0.00    +0.277 C 
ATOM     11  O   UNL     1      23.450   3.866 -25.057  0.00  0.00    -0.491 OA
ENDBRANCH   1  11
BRANCH   6  12
ATOM     12  O   UNL     1      24.106   3.770 -27.587  0.00  0.00    -0.491 OA
ATOM     13  C   UNL     1      24.974   3.174 -28.538  0.00  0.00    +0.277 C 
ENDBRANCH   6  12
BRANCH   8  14
ATOM     14  C   UNL     1      17.991  -0.451 -27.658  0.00  0.00    +0.078 C 
BRANCH  14  15
ATOM     15  C   UNL     1      16.847  -0.045 -26.735  0.00  0.00    +0.138 C 
ATOM     16  O   UNL     1      16.676  -0.572 -25.638  0.00  0.00    -0.297 OA
BRANCH  15  17
ATOM     17  C   UNL     1      15.943   1.051 -27.283  0.00  0.00    +0.109 C 
BRANCH  17  18
ATOM     18  C   UNL     1      16.666   2.185 -27.965  0.00  0.00    -0.040 A 
ATOM     19  C   UNL     1      16.763   2.228 -29.363  0.00  0.00    +0.004 A 
ATOM     20  C   UNL     1      17.429   3.281 -29.993  0.00  0.00    +0.000 A 
ATOM     21  C   UNL     1      17.998   4.302 -29.235  0.00  0.00    +0.000 A 
ATOM     22  C   UNL     1      17.898   4.275 -27.845  0.00  0.00    +0.000 A 
ATOM     23  C   UNL     1      17.233   3.222 -27.212  0.00  0.00    +0.004 A 
ENDBRANCH  17  18
ENDBRANCH  15  17
ENDBRANCH  14  15
ENDBRANCH   8  14
TORSDOF 6
ENDMDL
MODEL 2
REMARK VINA RESULT:    -4.448      8.291     11.967
REMARK INTER + INTRA:          -7.754
REMARK INTER:                  -6.746
REMARK INTRA:                  -1.008
REMARK UNBOUND:                -1.746
REMARK  Name = 
REMARK  8 active torsions:
REMARK  status: ('A' for Active; 'I' for Inactive)
REMARK    1  A    between atoms: C_1  and  O_2
REMARK    2  A    between atoms: O_2  and  C_3
REMARK    3  A    between atoms: C_8  and  O_9
REMARK    4  A    between atoms: O_9  and  C_10
REMARK    5  A    between atoms: C_12  and  C_13
REMARK    6  A    between atoms: C_13  and  C_14
REMARK    7  A    between atoms: C_14  and  C_16
REMARK    8  A    between atoms: C_16  and  C_17
REMARK                            x       y       z     vdW  Elec       q    Type
REMARK                         _______ _______ _______ _____ _____    ______ ____
ROOT
ATOM      1  C   UNL     1      16.116   0.496 -18.090  0.00  0.00    +0.162 A 
ATOM      2  C   UNL     1      16.992   1.457 -18.611  0.00  0.00    +0.053 A 
ATOM      3  C   UNL     1      17.490   2.435 -17.763  0.00  0.00    -0.040 A 
ATOM      4  C   UNL     1      17.121   2.477 -16.418  0.00  0.00    -0.040 A 
ATOM      5  C   UNL     1      16.246   1.544 -15.884  0.00  0.00    +0.053 A 
ATOM      6  C   UNL     1      15.741   0.540 -16.721  0.00  0.00    +0.162 A 
ATOM      7  C   UNL     1      17.753   3.646 -15.721  0.00  0.00    +0.039 C 
ATOM      8  C   UNL     1      18.891   3.994 -16.705  0.00  0.00    +0.005 C 
ATOM      9  C   UNL     1      18.406   3.569 -18.109  0.00  0.00    +0.039 C 
ENDROOT
BRANCH   1  11
ATOM     10  C   UNL     1      15.767  -0.502 -20.233  0.00  0.00    +0.277 C 
ATOM     11  O   UNL     1      15.566  -0.526 -18.828  0.00  0.00    -0.491 OA
ENDBRANCH   1  11
BRANCH   6  12
ATOM     12  O   UNL     1      14.876  -0.446 -16.307  0.00  0.00    -0.491 OA
ATOM     13  C   UNL     1      15.288  -1.269 -15.227  0.00  0.00    +0.277 C 
ENDBRANCH   6  12
BRANCH   8  14
ATOM     14  C   UNL     1      19.423   5.423 -16.605  0.00  0.00    +0.078 C 
BRANCH  14  15
ATOM     15  C   UNL     1      20.936   5.607 -16.660  0.00  0.00    +0.138 C 
ATOM     16  O   UNL     1      21.456   6.715 -16.765  0.00  0.00    -0.297 OA
BRANCH  15  17
ATOM     17  C   UNL     1      21.739   4.316 -16.580  0.00  0.00    +0.109 C 
BRANCH  17  18
ATOM     18  C   UNL     1      22.541   3.992 -17.817  0.00  0.00    -0.040 A 
ATOM     19  C   UNL     1      23.940   3.930 -17.761  0.00  0.00    +0.004 A 
ATOM     20  C   UNL     1      24.680   3.626 -18.905  0.00  0.00    +0.000 A 
ATOM     21  C   UNL     1      24.030   3.375 -20.112  0.00  0.00    +0.000 A 
ATOM     22  C   UNL     1      22.639   3.424 -20.176  0.00  0.00    +0.000 A 
ATOM     23  C   UNL     1      21.896   3.729 -19.033  0.00  0.00    +0.004 A 
ENDBRANCH  17  18
ENDBRANCH  15  17
ENDBRANCH  14  15
ENDBRANCH   8  14
TORSDOF 6
ENDMDL
MODEL 3
REMARK VINA RESULT:    -4.265      2.558      4.722
REMARK INTER + INTRA:          -7.507
REMARK INTER:                  -6.773
REMARK INTRA:                  -0.734
REMARK UNBOUND:                -1.746
REMARK  Name = 
REMARK  8 active torsions:
REMARK  status: ('A' for Active; 'I' for Inactive)
REMARK    1  A    between atoms: C_1  and  O_2
REMARK    2  A    between atoms: O_2  and  C_3
REMARK    3  A    between atoms: C_8  and  O_9
REMARK    4  A    between atoms: O_9  and  C_10
REMARK    5  A    between atoms: C_12  and  C_13
REMARK    6  A    between atoms: C_13  and  C_14
REMARK    7  A    between atoms: C_14  and  C_16
REMARK    8  A    between atoms: C_16  and  C_17
REMARK                            x       y       z     vdW  Elec       q    Type
REMARK                         _______ _______ _______ _____ _____    ______ ____
ROOT
ATOM      1  C   UNL     1      21.932   4.783 -23.430  0.00  0.00    +0.162 A 
ATOM      2  C   UNL     1      21.896   3.925 -24.537  0.00  0.00    +0.053 A 
ATOM      3  C   UNL     1      20.724   3.835 -25.273  0.00  0.00    -0.040 A 
ATOM      4  C   UNL     1      19.593   4.571 -24.920  0.00  0.00    -0.040 A 
ATOM      5  C   UNL     1      19.602   5.417 -23.821  0.00  0.00    +0.053 A 
ATOM      6  C   UNL     1      20.780   5.532 -23.071  0.00  0.00    +0.162 A 
ATOM      7  C   UNL     1      18.445   4.272 -25.837  0.00  0.00    +0.039 C 
ATOM      8  C   UNL     1      19.185   3.636 -27.035  0.00  0.00    +0.005 C 
ATOM      9  C   UNL     1      20.454   2.966 -26.464  0.00  0.00    +0.039 C 
ENDROOT
BRANCH   1  11
ATOM     10  C   UNL     1      23.971   3.900 -22.553  0.00  0.00    +0.277 C 
ATOM     11  O   UNL     1      23.035   4.965 -22.630  0.00  0.00    -0.491 OA
ENDBRANCH   1  11
BRANCH   6  12
ATOM     12  O   UNL     1      20.914   6.344 -21.968  0.00  0.00    -0.491 OA
ATOM     13  C   UNL     1      20.119   6.045 -20.832  0.00  0.00    +0.277 C 
ENDBRANCH   6  12
BRANCH   8  14
ATOM     14  C   UNL     1      18.326   2.745 -27.932  0.00  0.00    +0.078 C 
BRANCH  14  15
ATOM     15  C   UNL     1      19.052   1.907 -28.979  0.00  0.00    +0.138 C 
ATOM     16  O   UNL     1      19.222   2.304 -30.129  0.00  0.00    -0.297 OA
BRANCH  15  17
ATOM     17  C   UNL     1      19.537   0.550 -28.486  0.00  0.00    +0.109 C 
BRANCH  17  18
ATOM     18  C   UNL     1      18.655  -0.098 -27.448  0.00  0.00    -0.040 A 
ATOM     19  C   UNL     1      17.318  -0.401 -27.740  0.00  0.00    +0.004 A 
ATOM     20  C   UNL     1      16.505  -1.005 -26.780  0.00  0.00    +0.000 A 
ATOM     21  C   UNL     1      17.020  -1.317 -25.524  0.00  0.00    +0.000 A 
ATOM     22  C   UNL     1      18.351  -1.030 -25.226  0.00  0.00    +0.000 A 
ATOM     23  C   UNL     1      19.167  -0.425 -26.185  0.00  0.00    +0.004 A 
ENDBRANCH  17  18
ENDBRANCH  15  17
ENDBRANCH  14  15
ENDBRANCH   8  14
TORSDOF 6
ENDMDL
MODEL 4
REMARK VINA RESULT:    -4.213      1.868      2.173
REMARK INTER + INTRA:          -7.436
REMARK INTER:                  -5.525
REMARK INTRA:                  -1.911
REMARK UNBOUND:                -1.746
REMARK  Name = 
REMARK  8 active torsions:
REMARK  status: ('A' for Active; 'I' for Inactive)
REMARK    1  A    between atoms: C_1  and  O_2
REMARK    2  A    between atoms: O_2  and  C_3
REMARK    3  A    between atoms: C_8  and  O_9
REMARK    4  A    between atoms: O_9  and  C_10
REMARK    5  A    between atoms: C_12  and  C_13
REMARK    6  A    between atoms: C_13  and  C_14
REMARK    7  A    between atoms: C_14  and  C_16
REMARK    8  A    between atoms: C_16  and  C_17
REMARK                            x       y       z     vdW  Elec       q    Type
REMARK                         _______ _______ _______ _____ _____    ______ ____
ROOT
ATOM      1  C   UNL     1      21.349   4.652 -25.748  0.00  0.00    +0.162 A 
ATOM      2  C   UNL     1      20.791   3.413 -25.406  0.00  0.00    +0.053 A 
ATOM      3  C   UNL     1      20.176   2.663 -26.396  0.00  0.00    -0.040 A 
ATOM      4  C   UNL     1      20.097   3.129 -27.708  0.00  0.00    -0.040 A 
ATOM      5  C   UNL     1      20.630   4.357 -28.067  0.00  0.00    +0.053 A 
ATOM      6  C   UNL     1      21.268   5.126 -27.084  0.00  0.00    +0.162 A 
ATOM      7  C   UNL     1      19.351   2.164 -28.581  0.00  0.00    +0.039 C 
ATOM      8  C   UNL     1      19.419   0.881 -27.724  0.00  0.00    +0.005 C 
ATOM      9  C   UNL     1      19.492   1.337 -26.250  0.00  0.00    +0.039 C 
ENDROOT
BRANCH   1  11
ATOM     10  C   UNL     1      22.739   4.871 -23.816  0.00  0.00    +0.277 C 
ATOM     11  O   UNL     1      21.992   5.481 -24.858  0.00  0.00    -0.491 OA
ENDBRANCH   1  11
BRANCH   6  12
ATOM     12  O   UNL     1      21.843   6.353 -27.319  0.00  0.00    -0.491 OA
ATOM     13  C   UNL     1      22.425   6.572 -28.595  0.00  0.00    +0.277 C 
ENDBRANCH   6  12
BRANCH   8  14
ATOM     14  C   UNL     1      18.347  -0.164 -28.030  0.00  0.00    +0.078 C 
BRANCH  14  15
ATOM     15  C   UNL     1      17.310  -0.434 -26.944  0.00  0.00    +0.138 C 
ATOM     16  O   UNL     1      17.558  -1.130 -25.963  0.00  0.00    -0.297 OA
BRANCH  15  17
ATOM     17  C   UNL     1      15.954   0.219 -27.180  0.00  0.00    +0.109 C 
BRANCH  17  18
ATOM     18  C   UNL     1      15.986   1.723 -27.280  0.00  0.00    -0.040 A 
ATOM     19  C   UNL     1      16.258   2.505 -26.149  0.00  0.00    +0.004 A 
ATOM     20  C   UNL     1      16.292   3.898 -26.244  0.00  0.00    +0.000 A 
ATOM     21  C   UNL     1      16.061   4.521 -27.468  0.00  0.00    +0.000 A 
ATOM     22  C   UNL     1      15.801   3.753 -28.602  0.00  0.00    +0.000 A 
ATOM     23  C   UNL     1      15.766   2.360 -28.510  0.00  0.00    +0.004 A 
ENDBRANCH  17  18
ENDBRANCH  15  17
ENDBRANCH  14  15
ENDBRANCH   8  14
TORSDOF 6
ENDMDL
MODEL 5
REMARK VINA RESULT:    -4.105      3.297      8.308
REMARK INTER + INTRA:          -7.291
REMARK INTER:                  -6.685
REMARK INTRA:                  -0.606
REMARK UNBOUND:                -1.746
REMARK  Name = 
REMARK  8 active torsions:
REMARK  status: ('A' for Active; 'I' for Inactive)
REMARK    1  A    between atoms: C_1  and  O_2
REMARK    2  A    between atoms: O_2  and  C_3
REMARK    3  A    between atoms: C_8  and  O_9
REMARK    4  A    between atoms: O_9  and  C_10
REMARK    5  A    between atoms: C_12  and  C_13
REMARK    6  A    between atoms: C_13  and  C_14
REMARK    7  A    between atoms: C_14  and  C_16
REMARK    8  A    between atoms: C_16  and  C_17
REMARK                            x       y       z     vdW  Elec       q    Type
REMARK                         _______ _______ _______ _____ _____    ______ ____
ROOT
ATOM      1  C   UNL     1      18.820   1.221 -28.238  0.00  0.00    +0.162 A 
ATOM      2  C   UNL     1      20.091   1.590 -28.696  0.00  0.00    +0.053 A 
ATOM      3  C   UNL     1      21.060   1.937 -27.767  0.00  0.00    -0.040 A 
ATOM      4  C   UNL     1      20.781   1.936 -26.400  0.00  0.00    -0.040 A 
ATOM      5  C   UNL     1      19.526   1.587 -25.925  0.00  0.00    +0.053 A 
ATOM      6  C   UNL     1      18.536   1.220 -26.846  0.00  0.00    +0.162 A 
ATOM      7  C   UNL     1      21.969   2.387 -25.605  0.00  0.00    +0.039 C 
ATOM      8  C   UNL     1      23.102   2.199 -26.638  0.00  0.00    +0.005 C 
ATOM      9  C   UNL     1      22.464   2.389 -28.032  0.00  0.00    +0.039 C 
ENDROOT
BRANCH   1  11
ATOM     10  C   UNL     1      17.425   1.736 -30.109  0.00  0.00    +0.277 C 
ATOM     11  O   UNL     1      17.782   0.849 -29.059  0.00  0.00    -0.491 OA
ENDBRANCH   1  11
BRANCH   6  12
ATOM     12  O   UNL     1      17.259   0.846 -26.497  0.00  0.00    -0.491 OA
ATOM     13  C   UNL     1      17.094  -0.413 -25.863  0.00  0.00    +0.277 C 
ENDBRANCH   6  12
BRANCH   8  14
ATOM     14  C   UNL     1      24.362   3.025 -26.380  0.00  0.00    +0.078 C 
BRANCH  14  15
ATOM     15  C   UNL     1      25.703   2.340 -26.619  0.00  0.00    +0.138 C 
ATOM     16  O   UNL     1      25.812   1.354 -27.344  0.00  0.00    -0.297 OA
BRANCH  15  17
ATOM     17  C   UNL     1      26.881   2.971 -25.889  0.00  0.00    +0.109 C 
BRANCH  17  18
ATOM     18  C   UNL     1      27.271   2.282 -24.605  0.00  0.00    -0.040 A 
ATOM     19  C   UNL     1      28.328   1.362 -24.583  0.00  0.00    +0.004 A 
ATOM     20  C   UNL     1      28.690   0.730 -23.393  0.00  0.00    +0.000 A 
ATOM     21  C   UNL     1      28.005   1.013 -22.214  0.00  0.00    +0.000 A 
ATOM     22  C   UNL     1      26.959   1.933 -22.221  0.00  0.00    +0.000 A 
ATOM     23  C   UNL     1      26.594   2.568 -23.411  0.00  0.00    +0.004 A 
ENDBRANCH  17  18
ENDBRANCH  15  17
ENDBRANCH  14  15
ENDBRANCH   8  14
TORSDOF 6
ENDMDL
MODEL 6
REMARK VINA RESULT:    -4.017      2.921      5.101
REMARK INTER + INTRA:          -7.172
REMARK INTER:                  -6.929
REMARK INTRA:                  -0.244
REMARK UNBOUND:                -1.746
REMARK  Name = 
REMARK  8 active torsions:
REMARK  status: ('A' for Active; 'I' for Inactive)
REMARK    1  A    between atoms: C_1  and  O_2
REMARK    2  A    between atoms: O_2  and  C_3
REMARK    3  A    between atoms: C_8  and  O_9
REMARK    4  A    between atoms: O_9  and  C_10
REMARK    5  A    between atoms: C_12  and  C_13
REMARK    6  A    between atoms: C_13  and  C_14
REMARK    7  A    between atoms: C_14  and  C_16
REMARK    8  A    between atoms: C_16  and  C_17
REMARK                            x       y       z     vdW  Elec       q    Type
REMARK                         _______ _______ _______ _____ _____    ______ ____
ROOT
ATOM      1  C   UNL     1      24.430   2.940 -21.409  0.00  0.00    +0.162 A 
ATOM      2  C   UNL     1      23.486   2.193 -22.125  0.00  0.00    +0.053 A 
ATOM      3  C   UNL     1      23.307   2.461 -23.474  0.00  0.00    -0.040 A 
ATOM      4  C   UNL     1      24.038   3.463 -24.112  0.00  0.00    -0.040 A 
ATOM      5  C   UNL     1      24.968   4.223 -23.421  0.00  0.00    +0.053 A 
ATOM      6  C   UNL     1      25.175   3.960 -22.060  0.00  0.00    +0.162 A 
ATOM      7  C   UNL     1      23.636   3.592 -25.551  0.00  0.00    +0.039 C 
ATOM      8  C   UNL     1      22.927   2.239 -25.780  0.00  0.00    +0.005 C 
ATOM      9  C   UNL     1      22.338   1.814 -24.417  0.00  0.00    +0.039 C 
ENDROOT
BRANCH   1  11
ATOM     10  C   UNL     1      23.806   3.337 -19.137  0.00  0.00    +0.277 C 
ATOM     11  O   UNL     1      24.704   2.761 -20.074  0.00  0.00    -0.491 OA
ENDBRANCH   1  11
BRANCH   6  12
ATOM     12  O   UNL     1      26.075   4.638 -21.271  0.00  0.00    -0.491 OA
ATOM     13  C   UNL     1      26.182   6.041 -21.455  0.00  0.00    +0.277 C 
ENDBRANCH   6  12
BRANCH   8  14
ATOM     14  C   UNL     1      21.945   2.209 -26.951  0.00  0.00    +0.078 C 
BRANCH  14  15
ATOM     15  C   UNL     1      20.460   2.295 -26.615  0.00  0.00    +0.138 C 
ATOM     16  O   UNL     1      20.039   2.977 -25.684  0.00  0.00    -0.297 OA
BRANCH  15  17
ATOM     17  C   UNL     1      19.553   1.469 -27.518  0.00  0.00    +0.109 C 
BRANCH  17  18
ATOM     18  C   UNL     1      18.722   0.434 -26.802  0.00  0.00    -0.040 A 
ATOM     19  C   UNL     1      17.461   0.070 -27.294  0.00  0.00    +0.004 A 
ATOM     20  C   UNL     1      16.695  -0.892 -26.633  0.00  0.00    +0.000 A 
ATOM     21  C   UNL     1      17.184  -1.503 -25.481  0.00  0.00    +0.000 A 
ATOM     22  C   UNL     1      18.441  -1.158 -24.989  0.00  0.00    +0.000 A 
ATOM     23  C   UNL     1      19.209  -0.195 -25.648  0.00  0.00    +0.004 A 
ENDBRANCH  17  18
ENDBRANCH  15  17
ENDBRANCH  14  15
ENDBRANCH   8  14
TORSDOF 6
ENDMDL
MODEL 7
REMARK VINA RESULT:    -3.830      1.516      2.281
REMARK INTER + INTRA:          -6.919
REMARK INTER:                  -6.350
REMARK INTRA:                  -0.569
REMARK UNBOUND:                -1.746
REMARK  Name = 
REMARK  8 active torsions:
REMARK  status: ('A' for Active; 'I' for Inactive)
REMARK    1  A    between atoms: C_1  and  O_2
REMARK    2  A    between atoms: O_2  and  C_3
REMARK    3  A    between atoms: C_8  and  O_9
REMARK    4  A    between atoms: O_9  and  C_10
REMARK    5  A    between atoms: C_12  and  C_13
REMARK    6  A    between atoms: C_13  and  C_14
REMARK    7  A    between atoms: C_14  and  C_16
REMARK    8  A    between atoms: C_16  and  C_17
REMARK                            x       y       z     vdW  Elec       q    Type
REMARK                         _______ _______ _______ _____ _____    ______ ____
ROOT
ATOM      1  C   UNL     1      24.551   3.906 -25.704  0.00  0.00    +0.162 A 
ATOM      2  C   UNL     1      23.299   3.798 -25.084  0.00  0.00    +0.053 A 
ATOM      3  C   UNL     1      22.318   3.031 -25.693  0.00  0.00    -0.040 A 
ATOM      4  C   UNL     1      22.557   2.386 -26.907  0.00  0.00    -0.040 A 
ATOM      5  C   UNL     1      23.784   2.490 -27.544  0.00  0.00    +0.053 A 
ATOM      6  C   UNL     1      24.794   3.249 -26.939  0.00  0.00    +0.162 A 
ATOM      7  C   UNL     1      21.335   1.659 -27.383  0.00  0.00    +0.039 C 
ATOM      8  C   UNL     1      20.515   1.576 -26.076  0.00  0.00    +0.005 C 
ATOM      9  C   UNL     1      20.911   2.805 -25.228  0.00  0.00    +0.039 C 
ENDROOT
BRANCH   1  11
ATOM     10  C   UNL     1      25.422   5.252 -23.932  0.00  0.00    +0.277 C 
ATOM     11  O   UNL     1      25.605   4.627 -25.194  0.00  0.00    -0.491 OA
ENDBRANCH   1  11
BRANCH   6  12
ATOM     12  O   UNL     1      26.053   3.418 -27.468  0.00  0.00    -0.491 OA
ATOM     13  C   UNL     1      26.932   2.304 -27.438  0.00  0.00    +0.277 C 
ENDBRANCH   6  12
BRANCH   8  14
ATOM     14  C   UNL     1      19.013   1.370 -26.262  0.00  0.00    +0.078 C 
BRANCH  14  15
ATOM     15  C   UNL     1      18.493  -0.062 -26.189  0.00  0.00    +0.138 C 
ATOM     16  O   UNL     1      18.847  -0.840 -25.306  0.00  0.00    -0.297 OA
BRANCH  15  17
ATOM     17  C   UNL     1      17.514  -0.444 -27.291  0.00  0.00    +0.109 C 
BRANCH  17  18
ATOM     18  C   UNL     1      16.878   0.724 -28.003  0.00  0.00    -0.040 A 
ATOM     19  C   UNL     1      15.707   1.309 -27.503  0.00  0.00    +0.004 A 
ATOM     20  C   UNL     1      15.122   2.393 -28.160  0.00  0.00    +0.000 A 
ATOM     21  C   UNL     1      15.703   2.905 -29.318  0.00  0.00    +0.000 A 
ATOM     22  C   UNL     1      16.873   2.337 -29.819  0.00  0.00    +0.000 A 
ATOM     23  C   UNL     1      17.460   1.253 -29.164  0.00  0.00    +0.004 A 
ENDBRANCH  17  18
ENDBRANCH  15  17
ENDBRANCH  14  15
ENDBRANCH   8  14
TORSDOF 6
ENDMDL
MODEL 8
REMARK VINA RESULT:    -3.826      7.217      9.369
REMARK INTER + INTRA:          -6.913
REMARK INTER:                  -5.993
REMARK INTRA:                  -0.920
REMARK UNBOUND:                -1.746
REMARK  Name = 
REMARK  8 active torsions:
REMARK  status: ('A' for Active; 'I' for Inactive)
REMARK    1  A    between atoms: C_1  and  O_2
REMARK    2  A    between atoms: O_2  and  C_3
REMARK    3  A    between atoms: C_8  and  O_9
REMARK    4  A    between atoms: O_9  and  C_10
REMARK    5  A    between atoms: C_12  and  C_13
REMARK    6  A    between atoms: C_13  and  C_14
REMARK    7  A    between atoms: C_14  and  C_16
REMARK    8  A    between atoms: C_16  and  C_17
REMARK                            x       y       z     vdW  Elec       q    Type
REMARK                         _______ _______ _______ _____ _____    ______ ____
ROOT
ATOM      1  C   UNL     1      22.288   4.463 -21.608  0.00  0.00    +0.162 A 
ATOM      2  C   UNL     1      22.255   3.802 -20.373  0.00  0.00    +0.053 A 
ATOM      3  C   UNL     1      21.239   4.106 -19.481  0.00  0.00    -0.040 A 
ATOM      4  C   UNL     1      20.269   5.059 -19.791  0.00  0.00    -0.040 A 
ATOM      5  C   UNL     1      20.288   5.734 -21.001  0.00  0.00    +0.053 A 
ATOM      6  C   UNL     1      21.300   5.434 -21.923  0.00  0.00    +0.162 A 
ATOM      7  C   UNL     1      19.307   5.242 -18.654  0.00  0.00    +0.039 C 
ATOM      8  C   UNL     1      19.562   3.951 -17.845  0.00  0.00    +0.005 C 
ATOM      9  C   UNL     1      21.030   3.549 -18.105  0.00  0.00    +0.039 C 
ENDROOT
BRANCH   1  11
ATOM     10  C   UNL     1      23.224   2.983 -23.233  0.00  0.00    +0.277 C 
ATOM     11  O   UNL     1      23.238   4.242 -22.577  0.00  0.00    -0.491 OA
ENDBRANCH   1  11
BRANCH   6  12
ATOM     12  O   UNL     1      21.419   6.028 -23.158  0.00  0.00    -0.491 OA
ATOM     13  C   UNL     1      20.450   5.699 -24.141  0.00  0.00    +0.277 C 
ENDBRANCH   6  12
BRANCH   8  14
ATOM     14  C   UNL     1      19.155   4.015 -16.373  0.00  0.00    +0.078 C 
BRANCH  14  15
ATOM     15  C   UNL     1      17.742   3.561 -16.022  0.00  0.00    +0.138 C 
ATOM     16  O   UNL     1      17.308   3.605 -14.874  0.00  0.00    -0.297 OA
BRANCH  15  17
ATOM     17  C   UNL     1      16.925   3.048 -17.201  0.00  0.00    +0.109 C 
BRANCH  17  18
ATOM     18  C   UNL     1      16.886   1.547 -17.338  0.00  0.00    -0.040 A 
ATOM     19  C   UNL     1      16.157   0.768 -16.428  0.00  0.00    +0.004 A 
ATOM     20  C   UNL     1      16.118  -0.621 -16.559  0.00  0.00    +0.000 A 
ATOM     21  C   UNL     1      16.800  -1.244 -17.602  0.00  0.00    +0.000 A 
ATOM     22  C   UNL     1      17.519  -0.480 -18.518  0.00  0.00    +0.000 A 
ATOM     23  C   UNL     1      17.560   0.910 -18.389  0.00  0.00    +0.004 A 
ENDBRANCH  17  18
ENDBRANCH  15  17
ENDBRANCH  14  15
ENDBRANCH   8  14
TORSDOF 6
ENDMDL
MODEL 9
REMARK VINA RESULT:    -3.796      9.045     13.253
REMARK INTER + INTRA:          -6.874
REMARK INTER:                  -5.970
REMARK INTRA:                  -0.904
REMARK UNBOUND:                -1.746
REMARK  Name = 
REMARK  8 active torsions:
REMARK  status: ('A' for Active; 'I' for Inactive)
REMARK    1  A    between atoms: C_1  and  O_2
REMARK    2  A    between atoms: O_2  and  C_3
REMARK    3  A    between atoms: C_8  and  O_9
REMARK    4  A    between atoms: O_9  and  C_10
REMARK    5  A    between atoms: C_12  and  C_13
REMARK    6  A    between atoms: C_13  and  C_14
REMARK    7  A    between atoms: C_14  and  C_16
REMARK    8  A    between atoms: C_16  and  C_17
REMARK                            x       y       z     vdW  Elec       q    Type
REMARK                         _______ _______ _______ _____ _____    ______ ____
ROOT
ATOM      1  C   UNL     1      26.301   2.838 -21.086  0.00  0.00    +0.162 A 
ATOM      2  C   UNL     1      26.596   2.195 -22.295  0.00  0.00    +0.053 A 
ATOM      3  C   UNL     1      27.878   1.707 -22.496  0.00  0.00    -0.040 A 
ATOM      4  C   UNL     1      28.868   1.861 -21.524  0.00  0.00    -0.040 A 
ATOM      5  C   UNL     1      28.602   2.505 -20.326  0.00  0.00    +0.053 A 
ATOM      6  C   UNL     1      27.309   2.994 -20.097  0.00  0.00    +0.162 A 
ATOM      7  C   UNL     1      30.175   1.293 -21.990  0.00  0.00    +0.039 C 
ATOM      8  C   UNL     1      29.704   0.383 -23.146  0.00  0.00    +0.005 C 
ATOM      9  C   UNL     1      28.418   1.021 -23.714  0.00  0.00    +0.039 C 
ENDROOT
BRANCH   1  11
ATOM     10  C   UNL     1      24.042   2.434 -20.420  0.00  0.00    +0.277 C 
ATOM     11  O   UNL     1      25.067   3.354 -20.767  0.00  0.00    -0.491 OA
ENDBRANCH   1  11
BRANCH   6  12
ATOM     12  O   UNL     1      26.922   3.641 -18.946  0.00  0.00    -0.491 OA
ATOM     13  C   UNL     1      27.229   3.018 -17.709  0.00  0.00    +0.277 C 
ENDBRANCH   6  12
BRANCH   8  14
ATOM     14  C   UNL     1      30.775   0.042 -24.182  0.00  0.00    +0.078 C 
BRANCH  14  15
ATOM     15  C   UNL     1      31.416  -1.339 -24.090  0.00  0.00    +0.138 C 
ATOM     16  O   UNL     1      30.779  -2.370 -24.296  0.00  0.00    -0.297 OA
BRANCH  15  17
ATOM     17  C   UNL     1      32.893  -1.334 -23.720  0.00  0.00    +0.109 C 
BRANCH  17  18
ATOM     18  C   UNL     1      33.191  -1.745 -22.300  0.00  0.00    -0.040 A 
ATOM     19  C   UNL     1      33.246  -0.786 -21.279  0.00  0.00    +0.004 A 
ATOM     20  C   UNL     1      33.517  -1.169 -19.964  0.00  0.00    +0.000 A 
ATOM     21  C   UNL     1      33.729  -2.511 -19.656  0.00  0.00    +0.000 A 
ATOM     22  C   UNL     1      33.667  -3.474 -20.662  0.00  0.00    +0.000 A 
ATOM     23  C   UNL     1      33.396  -3.094 -21.978  0.00  0.00    +0.004 A 
ENDBRANCH  17  18
ENDBRANCH  15  17
ENDBRANCH  14  15
ENDBRANCH   8  14
TORSDOF 6
ENDMDL
