MODEL 1
REMARK VINA RESULT:    -4.989      0.000      0.000
REMARK INTER + INTRA:          -5.900
REMARK INTER:                  -5.864
REMARK INTRA:                  -0.036
REMARK UNBOUND:                -0.036
REMARK  Name = 
REMARK  5 active torsions:
REMARK  status: ('A' for Active; 'I' for Inactive)
REMARK    1  A    between atoms: C_1  and  C_2
REMARK    2  A    between atoms: C_5  and  O_6
REMARK    3  A    between atoms: O_6  and  C_7
REMARK    4  A    between atoms: C_8  and  C_9
REMARK    5  A    between atoms: C_9  and  N_10
REMARK                            x       y       z     vdW  Elec       q    Type
REMARK                         _______ _______ _______ _____ _____    ______ ____
ROOT
ATOM      1  C   UNL     1      15.983  -0.549 -20.669  0.00  0.00    +0.044 C 
ATOM      2  C   UNL     1      15.841  -0.526 -19.176  0.00  0.00    -0.050 A 
ATOM      3  C   UNL     1      14.949  -1.388 -18.534  0.00  0.00    +0.007 A 
ATOM      4  C   UNL     1      14.795  -1.345 -17.145  0.00  0.00    +0.046 A 
ATOM      5  C   UNL     1      15.517  -0.427 -16.376  0.00  0.00    +0.124 A 
ATOM      6  C   UNL     1      16.412   0.454 -17.009  0.00  0.00    +0.008 A 
ATOM      7  C   UNL     1      16.559   0.397 -18.408  0.00  0.00    +0.012 A 
ENDROOT
BRANCH   5   8
ATOM      8  O   UNL     1      15.441  -0.339 -15.010  0.00  0.00    -0.495 OA
ATOM      9  C   UNL     1      15.215  -1.548 -14.297  0.00  0.00    +0.277 C 
ENDBRANCH   5   8
BRANCH   6  10
ATOM     10  C   UNL     1      17.206   1.480 -16.222  0.00  0.00    +0.123 C 
BRANCH  10  11
ATOM     11  N   UNL     1      16.432   2.678 -15.858  0.00  0.00    -0.296 NA
ATOM     12  C   UNL     1      15.547   3.137 -16.947  0.00  0.00    +0.100 C 
ATOM     13  C   UNL     1      15.004   4.576 -16.742  0.00  0.00    +0.096 C 
ATOM     14  N   UNL     1      15.112   5.036 -15.347  0.00  0.00    -0.314 NA
ATOM     15  C   UNL     1      16.537   5.021 -14.958  0.00  0.00    +0.096 C 
ATOM     16  C   UNL     1      17.323   3.772 -15.436  0.00  0.00    +0.100 C 
ATOM     17  H   UNL     1      14.669   4.302 -14.785  0.00  0.00    +0.122 HD
ENDBRANCH  10  11
ENDBRANCH   6  10
TORSDOF 3
ENDMDL
MODEL 2
REMARK VINA RESULT:    -4.340      9.631     12.025
REMARK INTER + INTRA:          -5.137
REMARK INTER:                  -4.821
REMARK INTRA:                  -0.316
REMARK UNBOUND:                -0.036
REMARK  Name = 
REMARK  5 active torsions:
REMARK  status: ('A' for Active; 'I' for Inactive)
REMARK    1  A    between atoms: C_1  and  C_2
REMARK    2  A    between atoms: C_5  and  O_6
REMARK    3  A    between atoms: O_6  and  C_7
REMARK    4  A    between atoms: C_8  and  C_9
REMARK    5  A    between atoms: C_9  and  N_10
REMARK                            x       y       z     vdW  Elec       q    Type
REMARK                         _______ _______ _______ _____ _____    ______ ____
ROOT
ATOM      1  C   UNL     1      18.966   5.621 -26.308  0.00  0.00    +0.044 C 
ATOM      2  C   UNL     1      19.977   4.564 -26.641  0.00  0.00    -0.050 A 
ATOM      3  C   UNL     1      21.330   4.887 -26.760  0.00  0.00    +0.007 A 
ATOM      4  C   UNL     1      22.267   3.907 -27.101  0.00  0.00    +0.046 A 
ATOM      5  C   UNL     1      21.865   2.590 -27.346  0.00  0.00    +0.124 A 
ATOM      6  C   UNL     1      20.504   2.251 -27.239  0.00  0.00    +0.008 A 
ATOM      7  C   UNL     1      19.572   3.248 -26.893  0.00  0.00    +0.012 A 
ENDROOT
BRANCH   5   8
ATOM      8  O   UNL     1      22.723   1.568 -27.659  0.00  0.00    -0.495 OA
ATOM      9  C   UNL     1      24.114   1.832 -27.532  0.00  0.00    +0.277 C 
ENDBRANCH   5   8
BRANCH   6  10
ATOM     10  C   UNL     1      20.013   0.841 -27.511  0.00  0.00    +0.123 C 
BRANCH  10  11
ATOM     11  N   UNL     1      18.836   0.458 -26.715  0.00  0.00    -0.296 NA
ATOM     12  C   UNL     1      19.169  -0.467 -25.614  0.00  0.00    +0.100 C 
ATOM     13  C   UNL     1      17.932  -1.169 -24.995  0.00  0.00    +0.096 C 
ATOM     14  N   UNL     1      16.667  -0.483 -25.310  0.00  0.00    -0.314 NA
ATOM     15  C   UNL     1      16.500  -0.461 -26.778  0.00  0.00    +0.096 C 
ATOM     16  C   UNL     1      17.791  -0.130 -27.570  0.00  0.00    +0.100 C 
ATOM     17  H   UNL     1      16.814   0.495 -25.039  0.00  0.00    +0.122 HD
ENDBRANCH  10  11
ENDBRANCH   6  10
TORSDOF 3
ENDMDL
MODEL 3
REMARK VINA RESULT:    -4.043      2.138      3.144
REMARK INTER + INTRA:          -4.788
REMARK INTER:                  -4.450
REMARK INTRA:                  -0.338
REMARK UNBOUND:                -0.036
REMARK  Name = 
REMARK  5 active torsions:
REMARK  status: ('A' for Active; 'I' for Inactive)
REMARK    1  A    between atoms: C_1  and  C_2
REMARK    2  A    between atoms: C_5  and  O_6
REMARK    3  A    between atoms: O_6  and  C_7
REMARK    4  A    between atoms: C_8  and  C_9
REMARK    5  A    between atoms: C_9  and  N_10
REMARK                            x       y       z     vdW  Elec       q    Type
REMARK                         _______ _______ _______ _____ _____    ______ ____
ROOT
ATOM      1  C   UNL     1      17.506  -1.297 -18.299  0.00  0.00    +0.044 C 
ATOM      2  C   UNL     1      16.567  -0.271 -17.739  0.00  0.00    -0.050 A 
ATOM      3  C   UNL     1      15.244  -0.607 -17.440  0.00  0.00    +0.007 A 
ATOM      4  C   UNL     1      14.361   0.358 -16.947  0.00  0.00    +0.046 A 
ATOM      5  C   UNL     1      14.779   1.679 -16.759  0.00  0.00    +0.124 A 
ATOM      6  C   UNL     1      16.106   2.035 -17.065  0.00  0.00    +0.008 A 
ATOM      7  C   UNL     1      16.985   1.052 -17.558  0.00  0.00    +0.012 A 
ENDROOT
BRANCH   5   8
ATOM      8  O   UNL     1      13.983   2.675 -16.257  0.00  0.00    -0.495 OA
ATOM      9  C   UNL     1      12.846   3.043 -17.026  0.00  0.00    +0.277 C 
ENDBRANCH   5   8
BRANCH   6  10
ATOM     10  C   UNL     1      16.605   3.458 -16.895  0.00  0.00    +0.123 C 
BRANCH  10  11
ATOM     11  N   UNL     1      17.837   3.564 -16.096  0.00  0.00    -0.296 NA
ATOM     12  C   UNL     1      17.597   4.122 -14.750  0.00  0.00    +0.100 C 
ATOM     13  C   UNL     1      18.890   4.584 -14.029  0.00  0.00    +0.096 C 
ATOM     14  N   UNL     1      20.110   4.002 -14.613  0.00  0.00    -0.314 NA
ATOM     15  C   UNL     1      20.197   4.419 -16.028  0.00  0.00    +0.096 C 
ATOM     16  C   UNL     1      18.854   4.363 -16.800  0.00  0.00    +0.100 C 
ATOM     17  H   UNL     1      19.944   2.991 -14.637  0.00  0.00    +0.122 HD
ENDBRANCH  10  11
ENDBRANCH   6  10
TORSDOF 3
ENDMDL
MODEL 4
REMARK VINA RESULT:    -3.845      1.760      2.221
REMARK INTER + INTRA:          -4.556
REMARK INTER:                  -4.659
REMARK INTRA:                   0.103
REMARK UNBOUND:                -0.036
REMARK  Name = 
REMARK  5 active torsions:
REMARK  status: ('A' for Active; 'I' for Inactive)
REMARK    1  A    between atoms: C_1  and  C_2
REMARK    2  A    between atoms: C_5  and  O_6
REMARK    3  A    between atoms: O_6  and  C_7
REMARK    4  A    between atoms: C_8  and  C_9
REMARK    5  A    between atoms: C_9  and  N_10
REMARK                            x       y       z     vdW  Elec       q    Type
REMARK                         _______ _______ _______ _____ _____    ______ ____
ROOT
ATOM      1  C   UNL     1      17.527  -0.885 -18.448  0.00  0.00    +0.044 C 
ATOM      2  C   UNL     1      16.579  -0.326 -17.428  0.00  0.00    -0.050 A 
ATOM      3  C   UNL     1      16.016  -1.153 -16.454  0.00  0.00    +0.007 A 
ATOM      4  C   UNL     1      15.109  -0.638 -15.523  0.00  0.00    +0.046 A 
ATOM      5  C   UNL     1      14.735   0.709 -15.561  0.00  0.00    +0.124 A 
ATOM      6  C   UNL     1      15.286   1.552 -16.543  0.00  0.00    +0.008 A 
ATOM      7  C   UNL     1      16.201   1.020 -17.472  0.00  0.00    +0.012 A 
ENDROOT
BRANCH   5   8
ATOM      8  O   UNL     1      13.873   1.294 -14.670  0.00  0.00    -0.495 OA
ATOM      9  C   UNL     1      12.600   0.685 -14.508  0.00  0.00    +0.277 C 
ENDBRANCH   5   8
BRANCH   6  10
ATOM     10  C   UNL     1      14.901   3.017 -16.638  0.00  0.00    +0.123 C 
BRANCH  10  11
ATOM     11  N   UNL     1      15.968   3.940 -16.217  0.00  0.00    -0.296 NA
ATOM     12  C   UNL     1      16.731   4.487 -17.357  0.00  0.00    +0.100 C 
ATOM     13  C   UNL     1      18.068   5.157 -16.946  0.00  0.00    +0.096 C 
ATOM     14  N   UNL     1      18.120   5.502 -15.515  0.00  0.00    -0.314 NA
ATOM     15  C   UNL     1      17.966   4.260 -14.729  0.00  0.00    +0.096 C 
ATOM     16  C   UNL     1      16.882   3.289 -15.264  0.00  0.00    +0.100 C 
ATOM     17  H   UNL     1      17.269   6.044 -15.335  0.00  0.00    +0.122 HD
ENDBRANCH  10  11
ENDBRANCH   6  10
TORSDOF 3
ENDMDL
MODEL 5
REMARK VINA RESULT:    -3.798     10.706     12.838
REMARK INTER + INTRA:          -4.500
REMARK INTER:                  -4.088
REMARK INTRA:                  -0.413
REMARK UNBOUND:                -0.036
REMARK  Name = 
REMARK  5 active torsions:
REMARK  status: ('A' for Active; 'I' for Inactive)
REMARK    1  A    between atoms: C_1  and  C_2
REMARK    2  A    between atoms: C_5  and  O_6
REMARK    3  A    between atoms: O_6  and  C_7
REMARK    4  A    between atoms: C_8  and  C_9
REMARK    5  A    between atoms: C_9  and  N_10
REMARK                            x       y       z     vdW  Elec       q    Type
REMARK                         _______ _______ _______ _____ _____    ______ ____
ROOT
ATOM      1  C   UNL     1      13.517   3.932 -27.331  0.00  0.00    +0.044 C 
ATOM      2  C   UNL     1      14.589   3.527 -28.299  0.00  0.00    -0.050 A 
ATOM      3  C   UNL     1      14.732   4.192 -29.519  0.00  0.00    +0.007 A 
ATOM      4  C   UNL     1      15.712   3.794 -30.434  0.00  0.00    +0.046 A 
ATOM      5  C   UNL     1      16.553   2.713 -30.153  0.00  0.00    +0.124 A 
ATOM      6  C   UNL     1      16.415   2.028 -28.933  0.00  0.00    +0.008 A 
ATOM      7  C   UNL     1      15.426   2.442 -28.020  0.00  0.00    +0.012 A 
ENDROOT
BRANCH   5   8
ATOM      8  O   UNL     1      17.553   2.279 -30.985  0.00  0.00    -0.495 OA
ATOM      9  C   UNL     1      18.569   3.215 -31.318  0.00  0.00    +0.277 C 
ENDBRANCH   5   8
BRANCH   6  10
ATOM     10  C   UNL     1      17.292   0.838 -28.587  0.00  0.00    +0.123 C 
BRANCH  10  11
ATOM     11  N   UNL     1      18.508   1.195 -27.838  0.00  0.00    -0.296 NA
ATOM     12  C   UNL     1      19.745   0.909 -28.592  0.00  0.00    +0.100 C 
ATOM     13  C   UNL     1      21.025   0.925 -27.715  0.00  0.00    +0.096 C 
ATOM     14  N   UNL     1      20.833   1.625 -26.434  0.00  0.00    -0.314 NA
ATOM     15  C   UNL     1      19.765   0.936 -25.679  0.00  0.00    +0.096 C 
ATOM     16  C   UNL     1      18.542   0.513 -26.533  0.00  0.00    +0.100 C 
ATOM     17  H   UNL     1      20.443   2.541 -26.680  0.00  0.00    +0.122 HD
ENDBRANCH  10  11
ENDBRANCH   6  10
TORSDOF 3
ENDMDL
MODEL 6
REMARK VINA RESULT:    -3.585      8.679     10.314
REMARK INTER + INTRA:          -4.250
REMARK INTER:                  -3.934
REMARK INTRA:                  -0.316
REMARK UNBOUND:                -0.036
REMARK  Name = 
REMARK  5 active torsions:
REMARK  status: ('A' for Active; 'I' for Inactive)
REMARK    1  A    between atoms: C_1  and  C_2
REMARK    2  A    between atoms: C_5  and  O_6
REMARK    3  A    between atoms: O_6  and  C_7
REMARK    4  A    between atoms: C_8  and  C_9
REMARK    5  A    between atoms: C_9  and  N_10
REMARK                            x       y       z     vdW  Elec       q    Type
REMARK                         _______ _______ _______ _____ _____    ______ ____
ROOT
ATOM      1  C   UNL     1      21.162   4.271 -17.841  0.00  0.00    +0.044 C 
ATOM      2  C   UNL     1      22.606   3.951 -18.094  0.00  0.00    -0.050 A 
ATOM      3  C   UNL     1      23.566   4.180 -17.107  0.00  0.00    +0.007 A 
ATOM      4  C   UNL     1      24.916   3.910 -17.354  0.00  0.00    +0.046 A 
ATOM      5  C   UNL     1      25.330   3.425 -18.598  0.00  0.00    +0.124 A 
ATOM      6  C   UNL     1      24.375   3.199 -19.606  0.00  0.00    +0.008 A 
ATOM      7  C   UNL     1      23.019   3.472 -19.342  0.00  0.00    +0.012 A 
ENDROOT
BRANCH   5   8
ATOM      8  O   UNL     1      26.628   3.112 -18.910  0.00  0.00    -0.495 OA
ATOM      9  C   UNL     1      27.532   2.952 -17.824  0.00  0.00    +0.277 C 
ENDBRANCH   5   8
BRANCH   6  10
ATOM     10  C   UNL     1      24.775   2.689 -20.978  0.00  0.00    +0.123 C 
BRANCH  10  11
ATOM     11  N   UNL     1      23.817   3.034 -22.041  0.00  0.00    -0.296 NA
ATOM     12  C   UNL     1      23.523   1.896 -22.935  0.00  0.00    +0.100 C 
ATOM     13  C   UNL     1      22.821   2.308 -24.256  0.00  0.00    +0.096 C 
ATOM     14  N   UNL     1      22.207   3.644 -24.186  0.00  0.00    -0.314 NA
ATOM     15  C   UNL     1      23.268   4.632 -23.900  0.00  0.00    +0.096 C 
ATOM     16  C   UNL     1      24.295   4.184 -22.828  0.00  0.00    +0.100 C 
ATOM     17  H   UNL     1      21.617   3.629 -23.348  0.00  0.00    +0.122 HD
ENDBRANCH  10  11
ENDBRANCH   6  10
TORSDOF 3
ENDMDL
MODEL 7
REMARK VINA RESULT:    -3.576     17.485     18.868
REMARK INTER + INTRA:          -4.240
REMARK INTER:                  -3.907
REMARK INTRA:                  -0.333
REMARK UNBOUND:                -0.036
REMARK  Name = 
REMARK  5 active torsions:
REMARK  status: ('A' for Active; 'I' for Inactive)
REMARK    1  A    between atoms: C_1  and  C_2
REMARK    2  A    between atoms: C_5  and  O_6
REMARK    3  A    between atoms: O_6  and  C_7
REMARK    4  A    between atoms: C_8  and  C_9
REMARK    5  A    between atoms: C_9  and  N_10
REMARK                            x       y       z     vdW  Elec       q    Type
REMARK                         _______ _______ _______ _____ _____    ______ ____
ROOT
ATOM      1  C   UNL     1      33.176   0.993 -20.242  0.00  0.00    +0.044 C 
ATOM      2  C   UNL     1      33.321  -0.470 -20.541  0.00  0.00    -0.050 A 
ATOM      3  C   UNL     1      33.482  -1.393 -19.505  0.00  0.00    +0.007 A 
ATOM      4  C   UNL     1      33.648  -2.753 -19.785  0.00  0.00    +0.046 A 
ATOM      5  C   UNL     1      33.673  -3.211 -21.106  0.00  0.00    +0.124 A 
ATOM      6  C   UNL     1      33.522  -2.292 -22.160  0.00  0.00    +0.008 A 
ATOM      7  C   UNL     1      33.353  -0.926 -21.863  0.00  0.00    +0.012 A 
ENDROOT
BRANCH   5   8
ATOM      8  O   UNL     1      33.805  -4.528 -21.462  0.00  0.00    -0.495 OA
ATOM      9  C   UNL     1      34.430  -5.392 -20.522  0.00  0.00    +0.277 C 
ENDBRANCH   5   8
BRANCH   6  10
ATOM     10  C   UNL     1      33.559  -2.735 -23.611  0.00  0.00    +0.123 C 
BRANCH  10  11
ATOM     11  N   UNL     1      32.503  -2.135 -24.443  0.00  0.00    -0.296 NA
ATOM     12  C   UNL     1      31.212  -2.840 -24.321  0.00  0.00    +0.100 C 
ATOM     13  C   UNL     1      30.196  -2.474 -25.436  0.00  0.00    +0.096 C 
ATOM     14  N   UNL     1      30.531  -1.217 -26.125  0.00  0.00    -0.314 NA
ATOM     15  C   UNL     1      31.864  -1.364 -26.746  0.00  0.00    +0.096 C 
ATOM     16  C   UNL     1      32.915  -2.075 -25.855  0.00  0.00    +0.100 C 
ATOM     17  H   UNL     1      30.654  -0.523 -25.381  0.00  0.00    +0.122 HD
ENDBRANCH  10  11
ENDBRANCH   6  10
TORSDOF 3
ENDMDL
MODEL 8
REMARK VINA RESULT:    -3.541      9.725     10.891
REMARK INTER + INTRA:          -4.198
REMARK INTER:                  -3.857
REMARK INTRA:                  -0.342
REMARK UNBOUND:                -0.036
REMARK  Name = 
REMARK  5 active torsions:
REMARK  status: ('A' for Active; 'I' for Inactive)
REMARK    1  A    between atoms: C_1  and  C_2
REMARK    2  A    between atoms: C_5  and  O_6
REMARK    3  A    between atoms: O_6  and  C_7
REMARK    4  A    between atoms: C_8  and  C_9
REMARK    5  A    between atoms: C_9  and  N_10
REMARK                            x       y       z     vdW  Elec       q    Type
REMARK                         _______ _______ _______ _____ _____    ______ ____
ROOT
ATOM      1  C   UNL     1      23.631   2.386 -22.204  0.00  0.00    +0.044 C 
ATOM      2  C   UNL     1      23.664   2.861 -20.781  0.00  0.00    -0.050 A 
ATOM      3  C   UNL     1      22.556   3.501 -20.221  0.00  0.00    +0.007 A 
ATOM      4  C   UNL     1      22.599   3.971 -18.904  0.00  0.00    +0.046 A 
ATOM      5  C   UNL     1      23.755   3.823 -18.131  0.00  0.00    +0.124 A 
ATOM      6  C   UNL     1      24.881   3.189 -18.685  0.00  0.00    +0.008 A 
ATOM      7  C   UNL     1      24.823   2.719 -20.011  0.00  0.00    +0.012 A 
ENDROOT
BRANCH   5   8
ATOM      8  O   UNL     1      23.867   4.233 -16.828  0.00  0.00    -0.495 OA
ATOM      9  C   UNL     1      22.817   5.041 -16.312  0.00  0.00    +0.277 C 
ENDBRANCH   5   8
BRANCH   6  10
ATOM     10  C   UNL     1      26.165   3.019 -17.895  0.00  0.00    +0.123 C 
BRANCH  10  11
ATOM     11  N   UNL     1      27.362   3.515 -18.593  0.00  0.00    -0.296 NA
ATOM     12  C   UNL     1      28.525   2.618 -18.439  0.00  0.00    +0.100 C 
ATOM     13  C   UNL     1      29.873   3.273 -18.840  0.00  0.00    +0.096 C 
ATOM     14  N   UNL     1      29.701   4.469 -19.681  0.00  0.00    -0.314 NA
ATOM     15  C   UNL     1      28.913   5.464 -18.924  0.00  0.00    +0.096 C 
ATOM     16  C   UNL     1      27.710   4.874 -18.143  0.00  0.00    +0.100 C 
ATOM     17  H   UNL     1      29.096   4.174 -20.453  0.00  0.00    +0.122 HD
ENDBRANCH  10  11
ENDBRANCH   6  10
TORSDOF 3
ENDMDL
MODEL 9
REMARK VINA RESULT:    -3.485      2.369      3.056
REMARK INTER + INTRA:          -4.132
REMARK INTER:                  -4.436
REMARK INTRA:                   0.305
REMARK UNBOUND:                -0.036
REMARK  Name = 
REMARK  5 active torsions:
REMARK  status: ('A' for Active; 'I' for Inactive)
REMARK    1  A    between atoms: C_1  and  C_2
REMARK    2  A    between atoms: C_5  and  O_6
REMARK    3  A    between atoms: O_6  and  C_7
REMARK    4  A    between atoms: C_8  and  C_9
REMARK    5  A    between atoms: C_9  and  N_10
REMARK                            x       y       z     vdW  Elec       q    Type
REMARK                         _______ _______ _______ _____ _____    ______ ____
ROOT
ATOM      1  C   UNL     1      17.613  -0.864 -18.401  0.00  0.00    +0.044 C 
ATOM      2  C   UNL     1      16.656  -0.328 -17.378  0.00  0.00    -0.050 A 
ATOM      3  C   UNL     1      15.950  -1.197 -16.543  0.00  0.00    +0.007 A 
ATOM      4  C   UNL     1      15.035  -0.699 -15.610  0.00  0.00    +0.046 A 
ATOM      5  C   UNL     1      14.798   0.676 -15.508  0.00  0.00    +0.124 A 
ATOM      6  C   UNL     1      15.494   1.563 -16.349  0.00  0.00    +0.008 A 
ATOM      7  C   UNL     1      16.415   1.046 -17.282  0.00  0.00    +0.012 A 
ENDROOT
BRANCH   5   8
ATOM      8  O   UNL     1      13.938   1.244 -14.604  0.00  0.00    -0.495 OA
ATOM      9  C   UNL     1      12.639   0.676 -14.504  0.00  0.00    +0.277 C 
ENDBRANCH   5   8
BRANCH   6  10
ATOM     10  C   UNL     1      15.261   3.061 -16.290  0.00  0.00    +0.123 C 
BRANCH  10  11
ATOM     11  N   UNL     1      14.398   3.570 -17.368  0.00  0.00    -0.296 NA
ATOM     12  C   UNL     1      12.960   3.457 -17.049  0.00  0.00    +0.100 C 
ATOM     13  C   UNL     1      12.034   3.636 -18.281  0.00  0.00    +0.096 C 
ATOM     14  N   UNL     1      12.707   4.295 -19.413  0.00  0.00    -0.314 NA
ATOM     15  C   UNL     1      13.860   3.464 -19.819  0.00  0.00    +0.096 C 
ATOM     16  C   UNL     1      14.688   2.889 -18.641  0.00  0.00    +0.100 C 
ATOM     17  H   UNL     1      13.114   5.152 -19.026  0.00  0.00    +0.122 HD
ENDBRANCH  10  11
ENDBRANCH   6  10
TORSDOF 3
ENDMDL
