MODEL 1
REMARK VINA RESULT:    -5.358      0.000      0.000
REMARK INTER + INTRA:          -6.786
REMARK INTER:                  -6.454
REMARK INTRA:                  -0.332
REMARK UNBOUND:                -0.332
REMARK  Name = 
REMARK  6 active torsions:
REMARK  status: ('A' for Active; 'I' for Inactive)
REMARK    1  A    between atoms: C_3  and  O_4
REMARK    2  A    between atoms: C_5  and  C_6
REMARK    3  A    between atoms: C_9  and  O_10
REMARK    4  A    between atoms: C_11  and  O_12
REMARK    5  A    between atoms: C_17  and  O_18
REMARK    6  A    between atoms: C_20  and  O_21
REMARK                            x       y       z     vdW  Elec       q    Type
REMARK                         _______ _______ _______ _____ _____    ______ ____
ROOT
ATOM      1  O   UNL     1      10.533   1.909 -15.090  0.00  0.00    -0.283 OA
ATOM      2  C   UNL     1      11.531   1.262 -14.780  0.00  0.00    +0.238 A 
ATOM      3  C   UNL     1      12.590   0.988 -15.779  0.00  0.00    +0.208 A 
ATOM      4  C   UNL     1      13.661   0.270 -15.399  0.00  0.00    +0.181 A 
ATOM      5  O   UNL     1      13.837  -0.248 -14.122  0.00  0.00    -0.451 OA
ATOM      6  C   UNL     1      12.883   0.004 -13.168  0.00  0.00    +0.147 A 
ATOM      7  C   UNL     1      13.114  -0.515 -11.892  0.00  0.00    +0.092 A 
ATOM      8  C   UNL     1      12.175  -0.292 -10.888  0.00  0.00    +0.124 A 
ATOM      9  C   UNL     1      11.015   0.435 -11.139  0.00  0.00    +0.091 A 
ATOM     10  C   UNL     1      10.791   0.951 -12.412  0.00  0.00    +0.135 A 
ATOM     11  C   UNL     1      11.727   0.736 -13.428  0.00  0.00    +0.109 A 
ENDROOT
BRANCH   4  12
ATOM     12  C   UNL     1      14.770  -0.071 -16.316  0.00  0.00    +0.025 A 
ATOM     13  C   UNL     1      14.746  -1.249 -17.085  0.00  0.00    +0.015 A 
ATOM     14  C   UNL     1      15.786  -1.547 -17.970  0.00  0.00    +0.050 A 
ATOM     15  C   UNL     1      16.846  -0.665 -18.090  0.00  0.00    +0.158 A 
ATOM     16  C   UNL     1      16.884   0.508 -17.342  0.00  0.00    +0.159 A 
ATOM     17  C   UNL     1      15.852   0.814 -16.459  0.00  0.00    +0.060 A 
BRANCH  15  18
ATOM     18  O   UNL     1      17.861  -0.955 -18.955  0.00  0.00    -0.503 OA
ATOM     19  H   UNL     1      18.491  -1.485 -18.426  0.00  0.00    +0.292 HD
ENDBRANCH  15  18
BRANCH  16  20
ATOM     20  O   UNL     1      17.961   1.334 -17.510  0.00  0.00    -0.503 OA
ATOM     21  H   UNL     1      18.770   0.802 -17.417  0.00  0.00    +0.292 HD
ENDBRANCH  16  20
ENDBRANCH   4  12
BRANCH   3  22
ATOM     22  O   UNL     1      12.395   1.482 -17.056  0.00  0.00    -0.501 OA
ATOM     23  H   UNL     1      13.264   1.843 -17.332  0.00  0.00    +0.292 HD
ENDBRANCH   3  22
BRANCH   8  24
ATOM     24  O   UNL     1      12.358  -0.778  -9.627  0.00  0.00    -0.507 OA
ATOM     25  H   UNL     1      11.867  -0.228  -8.994  0.00  0.00    +0.292 HD
ENDBRANCH   8  24
BRANCH  10  26
ATOM     26  O   UNL     1       9.635   1.659 -12.601  0.00  0.00    -0.506 OA
ATOM     27  H   UNL     1       9.620   2.412 -11.970  0.00  0.00    +0.292 HD
ENDBRANCH  10  26
TORSDOF 6
ENDMDL
MODEL 2
REMARK VINA RESULT:    -5.053     12.129     14.920
REMARK INTER + INTRA:          -6.419
REMARK INTER:                  -6.117
REMARK INTRA:                  -0.302
REMARK UNBOUND:                -0.332
REMARK  Name = 
REMARK  6 active torsions:
REMARK  status: ('A' for Active; 'I' for Inactive)
REMARK    1  A    between atoms: C_3  and  O_4
REMARK    2  A    between atoms: C_5  and  C_6
REMARK    3  A    between atoms: C_9  and  O_10
REMARK    4  A    between atoms: C_11  and  O_12
REMARK    5  A    between atoms: C_17  and  O_18
REMARK    6  A    between atoms: C_20  and  O_21
REMARK                            x       y       z     vdW  Elec       q    Type
REMARK                         _______ _______ _______ _____ _____    ______ ____
ROOT
ATOM      1  O   UNL     1      21.130   5.095 -25.065  0.00  0.00    -0.283 OA
ATOM      2  C   UNL     1      21.094   4.023 -25.667  0.00  0.00    +0.238 A 
ATOM      3  C   UNL     1      19.835   3.246 -25.742  0.00  0.00    +0.208 A 
ATOM      4  C   UNL     1      19.842   2.075 -26.403  0.00  0.00    +0.181 A 
ATOM      5  O   UNL     1      20.966   1.534 -27.015  0.00  0.00    -0.451 OA
ATOM      6  C   UNL     1      22.143   2.239 -26.979  0.00  0.00    +0.147 A 
ATOM      7  C   UNL     1      23.240   1.669 -27.629  0.00  0.00    +0.092 A 
ATOM      8  C   UNL     1      24.460   2.341 -27.620  0.00  0.00    +0.124 A 
ATOM      9  C   UNL     1      24.599   3.565 -26.972  0.00  0.00    +0.091 A 
ATOM     10  C   UNL     1      23.503   4.129 -26.327  0.00  0.00    +0.135 A 
ATOM     11  C   UNL     1      22.272   3.465 -26.331  0.00  0.00    +0.109 A 
ENDROOT
BRANCH   4  12
ATOM     12  C   UNL     1      18.647   1.214 -26.531  0.00  0.00    +0.025 A 
ATOM     13  C   UNL     1      17.615   1.526 -27.434  0.00  0.00    +0.015 A 
ATOM     14  C   UNL     1      16.503   0.690 -27.568  0.00  0.00    +0.050 A 
ATOM     15  C   UNL     1      16.427  -0.462 -26.802  0.00  0.00    +0.158 A 
ATOM     16  C   UNL     1      17.441  -0.790 -25.908  0.00  0.00    +0.159 A 
ATOM     17  C   UNL     1      18.553   0.036 -25.769  0.00  0.00    +0.060 A 
BRANCH  15  18
ATOM     18  O   UNL     1      15.342  -1.279 -26.933  0.00  0.00    -0.503 OA
ATOM     19  H   UNL     1      14.573  -0.675 -26.907  0.00  0.00    +0.292 HD
ENDBRANCH  15  18
BRANCH  16  20
ATOM     20  O   UNL     1      17.301  -1.941 -25.183  0.00  0.00    -0.503 OA
ATOM     21  H   UNL     1      17.863  -2.626 -25.586  0.00  0.00    +0.292 HD
ENDBRANCH  16  20
ENDBRANCH   4  12
BRANCH   3  22
ATOM     22  O   UNL     1      18.727   3.775 -25.106  0.00  0.00    -0.501 OA
ATOM     23  H   UNL     1      18.526   3.156 -24.373  0.00  0.00    +0.292 HD
ENDBRANCH   3  22
BRANCH   8  24
ATOM     24  O   UNL     1      25.558   1.825 -28.242  0.00  0.00    -0.507 OA
ATOM     25  H   UNL     1      25.331   1.591 -29.158  0.00  0.00    +0.292 HD
ENDBRANCH   8  24
BRANCH  10  26
ATOM     26  O   UNL     1      23.698   5.334 -25.708  0.00  0.00    -0.506 OA
ATOM     27  H   UNL     1      24.495   5.269 -25.137  0.00  0.00    +0.292 HD
ENDBRANCH  10  26
TORSDOF 6
ENDMDL
MODEL 3
REMARK VINA RESULT:    -4.779     12.038     14.895
REMARK INTER + INTRA:          -6.089
REMARK INTER:                  -6.015
REMARK INTRA:                  -0.074
REMARK UNBOUND:                -0.332
REMARK  Name = 
REMARK  6 active torsions:
REMARK  status: ('A' for Active; 'I' for Inactive)
REMARK    1  A    between atoms: C_3  and  O_4
REMARK    2  A    between atoms: C_5  and  C_6
REMARK    3  A    between atoms: C_9  and  O_10
REMARK    4  A    between atoms: C_11  and  O_12
REMARK    5  A    between atoms: C_17  and  O_18
REMARK    6  A    between atoms: C_20  and  O_21
REMARK                            x       y       z     vdW  Elec       q    Type
REMARK                         _______ _______ _______ _____ _____    ______ ____
ROOT
ATOM      1  O   UNL     1      16.951   3.320 -31.596  0.00  0.00    -0.283 OA
ATOM      2  C   UNL     1      16.383   2.986 -30.558  0.00  0.00    +0.238 A 
ATOM      3  C   UNL     1      17.062   2.104 -29.581  0.00  0.00    +0.208 A 
ATOM      4  C   UNL     1      16.401   1.757 -28.462  0.00  0.00    +0.181 A 
ATOM      5  O   UNL     1      15.106   2.166 -28.165  0.00  0.00    -0.451 OA
ATOM      6  C   UNL     1      14.458   2.998 -29.042  0.00  0.00    +0.147 A 
ATOM      7  C   UNL     1      13.168   3.403 -28.691  0.00  0.00    +0.092 A 
ATOM      8  C   UNL     1      12.463   4.245 -29.547  0.00  0.00    +0.124 A 
ATOM      9  C   UNL     1      13.023   4.684 -30.744  0.00  0.00    +0.091 A 
ATOM     10  C   UNL     1      14.310   4.279 -31.088  0.00  0.00    +0.135 A 
ATOM     11  C   UNL     1      15.028   3.435 -30.235  0.00  0.00    +0.109 A 
ENDROOT
BRANCH   4  12
ATOM     12  C   UNL     1      16.977   0.875 -27.426  0.00  0.00    +0.025 A 
ATOM     13  C   UNL     1      16.317  -0.297 -27.014  0.00  0.00    +0.015 A 
ATOM     14  C   UNL     1      16.884  -1.139 -26.054  0.00  0.00    +0.050 A 
ATOM     15  C   UNL     1      18.116  -0.813 -25.511  0.00  0.00    +0.158 A 
ATOM     16  C   UNL     1      18.787   0.339 -25.911  0.00  0.00    +0.159 A 
ATOM     17  C   UNL     1      18.230   1.183 -26.867  0.00  0.00    +0.060 A 
BRANCH  15  18
ATOM     18  O   UNL     1      18.671  -1.636 -24.575  0.00  0.00    -0.503 OA
ATOM     19  H   UNL     1      19.629  -1.623 -24.773  0.00  0.00    +0.292 HD
ENDBRANCH  15  18
BRANCH  16  20
ATOM     20  O   UNL     1      19.998   0.600 -25.333  0.00  0.00    -0.503 OA
ATOM     21  H   UNL     1      20.194   1.546 -25.449  0.00  0.00    +0.292 HD
ENDBRANCH  16  20
ENDBRANCH   4  12
BRANCH   3  22
ATOM     22  O   UNL     1      18.339   1.678 -29.895  0.00  0.00    -0.501 OA
ATOM     23  H   UNL     1      18.263   1.251 -30.775  0.00  0.00    +0.292 HD
ENDBRANCH   3  22
BRANCH   8  24
ATOM     24  O   UNL     1      11.202   4.668 -29.246  0.00  0.00    -0.507 OA
ATOM     25  H   UNL     1      11.067   5.562 -29.602  0.00  0.00    +0.292 HD
ENDBRANCH   8  24
BRANCH  10  26
ATOM     26  O   UNL     1      14.810   4.742 -32.275  0.00  0.00    -0.506 OA
ATOM     27  H   UNL     1      14.649   4.066 -32.970  0.00  0.00    +0.292 HD
ENDBRANCH  10  26
TORSDOF 6
ENDMDL
MODEL 4
REMARK VINA RESULT:    -4.692     12.443     14.178
REMARK INTER + INTRA:          -5.984
REMARK INTER:                  -5.724
REMARK INTRA:                  -0.260
REMARK UNBOUND:                -0.332
REMARK  Name = 
REMARK  6 active torsions:
REMARK  status: ('A' for Active; 'I' for Inactive)
REMARK    1  A    between atoms: C_3  and  O_4
REMARK    2  A    between atoms: C_5  and  C_6
REMARK    3  A    between atoms: C_9  and  O_10
REMARK    4  A    between atoms: C_11  and  O_12
REMARK    5  A    between atoms: C_17  and  O_18
REMARK    6  A    between atoms: C_20  and  O_21
REMARK                            x       y       z     vdW  Elec       q    Type
REMARK                         _______ _______ _______ _____ _____    ______ ____
ROOT
ATOM      1  O   UNL     1      23.494   2.844 -26.917  0.00  0.00    -0.283 OA
ATOM      2  C   UNL     1      22.389   2.966 -26.393  0.00  0.00    +0.238 A 
ATOM      3  C   UNL     1      21.323   1.970 -26.645  0.00  0.00    +0.208 A 
ATOM      4  C   UNL     1      20.126   2.147 -26.058  0.00  0.00    +0.181 A 
ATOM      5  O   UNL     1      19.817   3.220 -25.231  0.00  0.00    -0.451 OA
ATOM      6  C   UNL     1      20.789   4.150 -24.963  0.00  0.00    +0.147 A 
ATOM      7  C   UNL     1      20.440   5.198 -24.108  0.00  0.00    +0.092 A 
ATOM      8  C   UNL     1      21.388   6.173 -23.805  0.00  0.00    +0.124 A 
ATOM      9  C   UNL     1      22.671   6.117 -24.344  0.00  0.00    +0.091 A 
ATOM     10  C   UNL     1      23.013   5.070 -25.195  0.00  0.00    +0.135 A 
ATOM     11  C   UNL     1      22.071   4.085 -25.504  0.00  0.00    +0.109 A 
ENDROOT
BRANCH   4  12
ATOM     12  C   UNL     1      18.990   1.221 -26.249  0.00  0.00    +0.025 A 
ATOM     13  C   UNL     1      19.003  -0.076 -25.703  0.00  0.00    +0.015 A 
ATOM     14  C   UNL     1      17.912  -0.932 -25.865  0.00  0.00    +0.050 A 
ATOM     15  C   UNL     1      16.803  -0.491 -26.568  0.00  0.00    +0.158 A 
ATOM     16  C   UNL     1      16.770   0.791 -27.110  0.00  0.00    +0.159 A 
ATOM     17  C   UNL     1      17.852   1.651 -26.953  0.00  0.00    +0.060 A 
BRANCH  15  18
ATOM     18  O   UNL     1      15.736  -1.326 -26.725  0.00  0.00    -0.503 OA
ATOM     19  H   UNL     1      15.808  -1.647 -27.647  0.00  0.00    +0.292 HD
ENDBRANCH  15  18
BRANCH  16  20
ATOM     20  O   UNL     1      15.644   1.161 -27.793  0.00  0.00    -0.503 OA
ATOM     21  H   UNL     1      15.233   1.907 -27.322  0.00  0.00    +0.292 HD
ENDBRANCH  16  20
ENDBRANCH   4  12
BRANCH   3  22
ATOM     22  O   UNL     1      21.628   0.920 -27.491  0.00  0.00    -0.501 OA
ATOM     23  H   UNL     1      20.910   0.905 -28.160  0.00  0.00    +0.292 HD
ENDBRANCH   3  22
BRANCH   8  24
ATOM     24  O   UNL     1      21.095   7.213 -22.974  0.00  0.00    -0.507 OA
ATOM     25  H   UNL     1      20.230   7.585 -23.214  0.00  0.00    +0.292 HD
ENDBRANCH   8  24
BRANCH  10  26
ATOM     26  O   UNL     1      24.288   5.066 -25.693  0.00  0.00    -0.506 OA
ATOM     27  H   UNL     1      24.620   4.142 -25.701  0.00  0.00    +0.292 HD
ENDBRANCH  10  26
TORSDOF 6
ENDMDL
MODEL 5
REMARK VINA RESULT:    -4.626      5.090      7.376
REMARK INTER + INTRA:          -5.905
REMARK INTER:                  -5.573
REMARK INTRA:                  -0.333
REMARK UNBOUND:                -0.332
REMARK  Name = 
REMARK  6 active torsions:
REMARK  status: ('A' for Active; 'I' for Inactive)
REMARK    1  A    between atoms: C_3  and  O_4
REMARK    2  A    between atoms: C_5  and  C_6
REMARK    3  A    between atoms: C_9  and  O_10
REMARK    4  A    between atoms: C_11  and  O_12
REMARK    5  A    between atoms: C_17  and  O_18
REMARK    6  A    between atoms: C_20  and  O_21
REMARK                            x       y       z     vdW  Elec       q    Type
REMARK                         _______ _______ _______ _____ _____    ______ ____
ROOT
ATOM      1  O   UNL     1      16.678   0.651 -18.724  0.00  0.00    -0.283 OA
ATOM      2  C   UNL     1      15.998   1.674 -18.775  0.00  0.00    +0.238 A 
ATOM      3  C   UNL     1      15.205   1.989 -19.986  0.00  0.00    +0.208 A 
ATOM      4  C   UNL     1      14.481   3.122 -20.003  0.00  0.00    +0.181 A 
ATOM      5  O   UNL     1      14.437   4.032 -18.954  0.00  0.00    -0.451 OA
ATOM      6  C   UNL     1      15.146   3.760 -17.811  0.00  0.00    +0.147 A 
ATOM      7  C   UNL     1      15.053   4.690 -16.774  0.00  0.00    +0.092 A 
ATOM      8  C   UNL     1      15.757   4.465 -15.593  0.00  0.00    +0.124 A 
ATOM      9  C   UNL     1      16.549   3.331 -15.436  0.00  0.00    +0.091 A 
ATOM     10  C   UNL     1      16.638   2.406 -16.472  0.00  0.00    +0.135 A 
ATOM     11  C   UNL     1      15.934   2.621 -17.661  0.00  0.00    +0.109 A 
ENDROOT
BRANCH   4  12
ATOM     12  C   UNL     1      13.663   3.539 -21.161  0.00  0.00    +0.025 A 
ATOM     13  C   UNL     1      14.209   4.314 -22.200  0.00  0.00    +0.015 A 
ATOM     14  C   UNL     1      13.434   4.678 -23.305  0.00  0.00    +0.050 A 
ATOM     15  C   UNL     1      12.115   4.264 -23.372  0.00  0.00    +0.158 A 
ATOM     16  C   UNL     1      11.559   3.492 -22.356  0.00  0.00    +0.159 A 
ATOM     17  C   UNL     1      12.323   3.123 -21.253  0.00  0.00    +0.060 A 
BRANCH  15  18
ATOM     18  O   UNL     1      11.358   4.618 -24.451  0.00  0.00    -0.503 OA
ATOM     19  H   UNL     1      10.491   4.193 -24.294  0.00  0.00    +0.292 HD
ENDBRANCH  15  18
BRANCH  16  20
ATOM     20  O   UNL     1      10.250   3.118 -22.487  0.00  0.00    -0.503 OA
ATOM     21  H   UNL     1       9.974   3.288 -23.405  0.00  0.00    +0.292 HD
ENDBRANCH  16  20
ENDBRANCH   4  12
BRANCH   3  22
ATOM     22  O   UNL     1      15.275   1.094 -21.037  0.00  0.00    -0.501 OA
ATOM     23  H   UNL     1      15.513   0.233 -20.633  0.00  0.00    +0.292 HD
ENDBRANCH   3  22
BRANCH   8  24
ATOM     24  O   UNL     1      15.695   5.344 -14.552  0.00  0.00    -0.507 OA
ATOM     25  H   UNL     1      16.172   4.977 -13.790  0.00  0.00    +0.292 HD
ENDBRANCH   8  24
BRANCH  10  26
ATOM     26  O   UNL     1      17.430   1.311 -16.261  0.00  0.00    -0.506 OA
ATOM     27  H   UNL     1      17.441   1.110 -15.299  0.00  0.00    +0.292 HD
ENDBRANCH  10  26
TORSDOF 6
ENDMDL
MODEL 6
REMARK VINA RESULT:    -4.536      4.918      7.462
REMARK INTER + INTRA:          -5.797
REMARK INTER:                  -5.477
REMARK INTRA:                  -0.320
REMARK UNBOUND:                -0.332
REMARK  Name = 
REMARK  6 active torsions:
REMARK  status: ('A' for Active; 'I' for Inactive)
REMARK    1  A    between atoms: C_3  and  O_4
REMARK    2  A    between atoms: C_5  and  C_6
REMARK    3  A    between atoms: C_9  and  O_10
REMARK    4  A    between atoms: C_11  and  O_12
REMARK    5  A    between atoms: C_17  and  O_18
REMARK    6  A    between atoms: C_20  and  O_21
REMARK                            x       y       z     vdW  Elec       q    Type
REMARK                         _______ _______ _______ _____ _____    ______ ____
ROOT
ATOM      1  O   UNL     1      14.617   3.653 -16.525  0.00  0.00    -0.283 OA
ATOM      2  C   UNL     1      14.757   3.147 -17.636  0.00  0.00    +0.238 A 
ATOM      3  C   UNL     1      14.048   3.704 -18.811  0.00  0.00    +0.208 A 
ATOM      4  C   UNL     1      14.225   3.114 -20.007  0.00  0.00    +0.181 A 
ATOM      5  O   UNL     1      15.026   1.997 -20.212  0.00  0.00    -0.451 OA
ATOM      6  C   UNL     1      15.711   1.469 -19.147  0.00  0.00    +0.147 A 
ATOM      7  C   UNL     1      16.523   0.363 -19.406  0.00  0.00    +0.092 A 
ATOM      8  C   UNL     1      17.238  -0.216 -18.359  0.00  0.00    +0.124 A 
ATOM      9  C   UNL     1      17.150   0.291 -17.065  0.00  0.00    +0.091 A 
ATOM     10  C   UNL     1      16.340   1.394 -16.813  0.00  0.00    +0.135 A 
ATOM     11  C   UNL     1      15.620   1.984 -17.857  0.00  0.00    +0.109 A 
ENDROOT
BRANCH   4  12
ATOM     12  C   UNL     1      13.559   3.579 -21.242  0.00  0.00    +0.025 A 
ATOM     13  C   UNL     1      14.237   4.376 -22.182  0.00  0.00    +0.015 A 
ATOM     14  C   UNL     1      13.607   4.787 -23.359  0.00  0.00    +0.050 A 
ATOM     15  C   UNL     1      12.301   4.395 -23.600  0.00  0.00    +0.158 A 
ATOM     16  C   UNL     1      11.616   3.602 -22.685  0.00  0.00    +0.159 A 
ATOM     17  C   UNL     1      12.236   3.187 -21.509  0.00  0.00    +0.060 A 
BRANCH  15  18
ATOM     18  O   UNL     1      11.685   4.795 -24.751  0.00  0.00    -0.503 OA
ATOM     19  H   UNL     1      12.334   4.602 -25.457  0.00  0.00    +0.292 HD
ENDBRANCH  15  18
BRANCH  16  20
ATOM     20  O   UNL     1      10.328   3.253 -22.986  0.00  0.00    -0.503 OA
ATOM     21  H   UNL     1       9.947   3.950 -23.547  0.00  0.00    +0.292 HD
ENDBRANCH  16  20
ENDBRANCH   4  12
BRANCH   3  22
ATOM     22  O   UNL     1      13.230   4.796 -18.595  0.00  0.00    -0.501 OA
ATOM     23  H   UNL     1      12.860   5.025 -19.474  0.00  0.00    +0.292 HD
ENDBRANCH   3  22
BRANCH   8  24
ATOM     24  O   UNL     1      18.045  -1.295 -18.563  0.00  0.00    -0.507 OA
ATOM     25  H   UNL     1      18.902  -0.997 -18.910  0.00  0.00    +0.292 HD
ENDBRANCH   8  24
BRANCH  10  26
ATOM     26  O   UNL     1      16.293   1.849 -15.524  0.00  0.00    -0.506 OA
ATOM     27  H   UNL     1      15.853   1.171 -14.966  0.00  0.00    +0.292 HD
ENDBRANCH  10  26
TORSDOF 6
ENDMDL
MODEL 7
REMARK VINA RESULT:    -4.501      4.464      7.127
REMARK INTER + INTRA:          -5.754
REMARK INTER:                  -5.419
REMARK INTRA:                  -0.335
REMARK UNBOUND:                -0.332
REMARK  Name = 
REMARK  6 active torsions:
REMARK  status: ('A' for Active; 'I' for Inactive)
REMARK    1  A    between atoms: C_3  and  O_4
REMARK    2  A    between atoms: C_5  and  C_6
REMARK    3  A    between atoms: C_9  and  O_10
REMARK    4  A    between atoms: C_11  and  O_12
REMARK    5  A    between atoms: C_17  and  O_18
REMARK    6  A    between atoms: C_20  and  O_21
REMARK                            x       y       z     vdW  Elec       q    Type
REMARK                         _______ _______ _______ _____ _____    ______ ____
ROOT
ATOM      1  O   UNL     1      16.388   4.276 -15.221  0.00  0.00    -0.283 OA
ATOM      2  C   UNL     1      16.901   3.720 -16.191  0.00  0.00    +0.238 A 
ATOM      3  C   UNL     1      18.170   4.226 -16.763  0.00  0.00    +0.208 A 
ATOM      4  C   UNL     1      18.691   3.592 -17.829  0.00  0.00    +0.181 A 
ATOM      5  O   UNL     1      18.105   2.492 -18.443  0.00  0.00    -0.451 OA
ATOM      6  C   UNL     1      16.939   1.988 -17.925  0.00  0.00    +0.147 A 
ATOM      7  C   UNL     1      16.399   0.867 -18.559  0.00  0.00    +0.092 A 
ATOM      8  C   UNL     1      15.213   0.318 -18.077  0.00  0.00    +0.124 A 
ATOM      9  C   UNL     1      14.562   0.872 -16.979  0.00  0.00    +0.091 A 
ATOM     10  C   UNL     1      15.104   1.988 -16.350  0.00  0.00    +0.135 A 
ATOM     11  C   UNL     1      16.295   2.547 -16.823  0.00  0.00    +0.109 A 
ENDROOT
BRANCH   4  12
ATOM     12  C   UNL     1      19.945   4.017 -18.486  0.00  0.00    +0.025 A 
ATOM     13  C   UNL     1      21.199   3.579 -18.021  0.00  0.00    +0.015 A 
ATOM     14  C   UNL     1      22.377   3.964 -18.666  0.00  0.00    +0.050 A 
ATOM     15  C   UNL     1      22.301   4.782 -19.781  0.00  0.00    +0.158 A 
ATOM     16  C   UNL     1      21.070   5.221 -20.259  0.00  0.00    +0.159 A 
ATOM     17  C   UNL     1      19.891   4.842 -19.623  0.00  0.00    +0.060 A 
BRANCH  15  18
ATOM     18  O   UNL     1      23.451   5.158 -20.412  0.00  0.00    -0.503 OA
ATOM     19  H   UNL     1      24.152   5.037 -19.740  0.00  0.00    +0.292 HD
ENDBRANCH  15  18
BRANCH  16  20
ATOM     20  O   UNL     1      21.069   6.027 -21.363  0.00  0.00    -0.503 OA
ATOM     21  H   UNL     1      20.148   6.140 -21.658  0.00  0.00    +0.292 HD
ENDBRANCH  16  20
ENDBRANCH   4  12
BRANCH   3  22
ATOM     22  O   UNL     1      18.733   5.338 -16.166  0.00  0.00    -0.501 OA
ATOM     23  H   UNL     1      19.338   5.718 -16.838  0.00  0.00    +0.292 HD
ENDBRANCH   3  22
BRANCH   8  24
ATOM     24  O   UNL     1      14.650  -0.777 -18.662  0.00  0.00    -0.507 OA
ATOM     25  H   UNL     1      14.831  -0.763 -19.617  0.00  0.00    +0.292 HD
ENDBRANCH   8  24
BRANCH  10  26
ATOM     26  O   UNL     1      14.421   2.489 -15.275  0.00  0.00    -0.506 OA
ATOM     27  H   UNL     1      14.752   3.395 -15.085  0.00  0.00    +0.292 HD
ENDBRANCH  10  26
TORSDOF 6
ENDMDL
MODEL 8
REMARK VINA RESULT:    -4.435      3.877      6.754
REMARK INTER + INTRA:          -5.674
REMARK INTER:                  -5.341
REMARK INTRA:                  -0.333
REMARK UNBOUND:                -0.332
REMARK  Name = 
REMARK  6 active torsions:
REMARK  status: ('A' for Active; 'I' for Inactive)
REMARK    1  A    between atoms: C_3  and  O_4
REMARK    2  A    between atoms: C_5  and  C_6
REMARK    3  A    between atoms: C_9  and  O_10
REMARK    4  A    between atoms: C_11  and  O_12
REMARK    5  A    between atoms: C_17  and  O_18
REMARK    6  A    between atoms: C_20  and  O_21
REMARK                            x       y       z     vdW  Elec       q    Type
REMARK                         _______ _______ _______ _____ _____    ______ ____
ROOT
ATOM      1  O   UNL     1      13.739   1.349 -14.954  0.00  0.00    -0.283 OA
ATOM      2  C   UNL     1      14.001   1.567 -16.135  0.00  0.00    +0.238 A 
ATOM      3  C   UNL     1      13.245   2.589 -16.896  0.00  0.00    +0.208 A 
ATOM      4  C   UNL     1      13.559   2.789 -18.188  0.00  0.00    +0.181 A 
ATOM      5  O   UNL     1      14.547   2.086 -18.866  0.00  0.00    -0.451 OA
ATOM      6  C   UNL     1      15.278   1.147 -18.184  0.00  0.00    +0.147 A 
ATOM      7  C   UNL     1      16.277   0.483 -18.899  0.00  0.00    +0.092 A 
ATOM      8  C   UNL     1      17.046  -0.484 -18.256  0.00  0.00    +0.124 A 
ATOM      9  C   UNL     1      16.830  -0.797 -16.916  0.00  0.00    +0.091 A 
ATOM     10  C   UNL     1      15.834  -0.131 -16.208  0.00  0.00    +0.135 A 
ATOM     11  C   UNL     1      15.057   0.843 -16.843  0.00  0.00    +0.109 A 
ENDROOT
BRANCH   4  12
ATOM     12  C   UNL     1      12.863   3.774 -19.043  0.00  0.00    +0.025 A 
ATOM     13  C   UNL     1      11.672   3.445 -19.716  0.00  0.00    +0.015 A 
ATOM     14  C   UNL     1      11.007   4.392 -20.499  0.00  0.00    +0.050 A 
ATOM     15  C   UNL     1      11.530   5.670 -20.605  0.00  0.00    +0.158 A 
ATOM     16  C   UNL     1      12.704   6.015 -19.942  0.00  0.00    +0.159 A 
ATOM     17  C   UNL     1      13.373   5.079 -19.159  0.00  0.00    +0.060 A 
BRANCH  15  18
ATOM     18  O   UNL     1      10.881   6.596 -21.369  0.00  0.00    -0.503 OA
ATOM     19  H   UNL     1      10.290   6.070 -21.944  0.00  0.00    +0.292 HD
ENDBRANCH  15  18
BRANCH  16  20
ATOM     20  O   UNL     1      13.165   7.294 -20.092  0.00  0.00    -0.503 OA
ATOM     21  H   UNL     1      12.771   7.844 -19.391  0.00  0.00    +0.292 HD
ENDBRANCH  16  20
ENDBRANCH   4  12
BRANCH   3  22
ATOM     22  O   UNL     1      12.244   3.264 -16.224  0.00  0.00    -0.501 OA
ATOM     23  H   UNL     1      11.636   2.570 -15.892  0.00  0.00    +0.292 HD
ENDBRANCH   3  22
BRANCH   8  24
ATOM     24  O   UNL     1      18.033  -1.157 -18.912  0.00  0.00    -0.507 OA
ATOM     25  H   UNL     1      18.888  -0.968 -18.492  0.00  0.00    +0.292 HD
ENDBRANCH   8  24
BRANCH  10  26
ATOM     26  O   UNL     1      15.668  -0.479 -14.895  0.00  0.00    -0.506 OA
ATOM     27  H   UNL     1      15.246  -1.365 -14.854  0.00  0.00    +0.292 HD
ENDBRANCH  10  26
TORSDOF 6
ENDMDL
MODEL 9
REMARK VINA RESULT:    -4.386      5.005      8.540
REMARK INTER + INTRA:          -5.616
REMARK INTER:                  -5.537
REMARK INTRA:                  -0.079
REMARK UNBOUND:                -0.332
REMARK  Name = 
REMARK  6 active torsions:
REMARK  status: ('A' for Active; 'I' for Inactive)
REMARK    1  A    between atoms: C_3  and  O_4
REMARK    2  A    between atoms: C_5  and  C_6
REMARK    3  A    between atoms: C_9  and  O_10
REMARK    4  A    between atoms: C_11  and  O_12
REMARK    5  A    between atoms: C_17  and  O_18
REMARK    6  A    between atoms: C_20  and  O_21
REMARK                            x       y       z     vdW  Elec       q    Type
REMARK                         _______ _______ _______ _____ _____    ______ ____
ROOT
ATOM      1  O   UNL     1      18.643   5.424 -14.787  0.00  0.00    -0.283 OA
ATOM      2  C   UNL     1      18.774   4.760 -15.813  0.00  0.00    +0.238 A 
ATOM      3  C   UNL     1      17.841   3.650 -16.115  0.00  0.00    +0.208 A 
ATOM      4  C   UNL     1      18.027   2.944 -17.245  0.00  0.00    +0.181 A 
ATOM      5  O   UNL     1      19.054   3.182 -18.150  0.00  0.00    -0.451 OA
ATOM      6  C   UNL     1      19.923   4.215 -17.909  0.00  0.00    +0.147 A 
ATOM      7  C   UNL     1      20.924   4.433 -18.858  0.00  0.00    +0.092 A 
ATOM      8  C   UNL     1      21.837   5.467 -18.659  0.00  0.00    +0.124 A 
ATOM      9  C   UNL     1      21.765   6.279 -17.531  0.00  0.00    +0.091 A 
ATOM     10  C   UNL     1      20.765   6.059 -16.589  0.00  0.00    +0.135 A 
ATOM     11  C   UNL     1      19.842   5.025 -16.778  0.00  0.00    +0.109 A 
ENDROOT
BRANCH   4  12
ATOM     12  C   UNL     1      17.164   1.811 -17.639  0.00  0.00    +0.025 A 
ATOM     13  C   UNL     1      16.898   0.751 -16.752  0.00  0.00    +0.015 A 
ATOM     14  C   UNL     1      16.057  -0.301 -17.124  0.00  0.00    +0.050 A 
ATOM     15  C   UNL     1      15.477  -0.291 -18.381  0.00  0.00    +0.158 A 
ATOM     16  C   UNL     1      15.724   0.751 -19.270  0.00  0.00    +0.159 A 
ATOM     17  C   UNL     1      16.559   1.804 -18.908  0.00  0.00    +0.060 A 
BRANCH  15  18
ATOM     18  O   UNL     1      14.655  -1.317 -18.745  0.00  0.00    -0.503 OA
ATOM     19  H   UNL     1      15.187  -1.849 -19.372  0.00  0.00    +0.292 HD
ENDBRANCH  15  18
BRANCH  16  20
ATOM     20  O   UNL     1      15.118   0.697 -20.495  0.00  0.00    -0.503 OA
ATOM     21  H   UNL     1      14.513   1.455 -20.571  0.00  0.00    +0.292 HD
ENDBRANCH  16  20
ENDBRANCH   4  12
BRANCH   3  22
ATOM     22  O   UNL     1      16.839   3.400 -15.196  0.00  0.00    -0.501 OA
ATOM     23  H   UNL     1      15.998   3.536 -15.682  0.00  0.00    +0.292 HD
ENDBRANCH   3  22
BRANCH   8  24
ATOM     24  O   UNL     1      22.830   5.718 -19.559  0.00  0.00    -0.507 OA
ATOM     25  H   UNL     1      23.363   6.469 -19.251  0.00  0.00    +0.292 HD
ENDBRANCH   8  24
BRANCH  10  26
ATOM     26  O   UNL     1      20.743   6.888 -15.501  0.00  0.00    -0.506 OA
ATOM     27  H   UNL     1      19.811   7.141 -15.316  0.00  0.00    +0.292 HD
ENDBRANCH  10  26
TORSDOF 6
ENDMDL
