MODEL 1
REMARK VINA RESULT:    -4.444      0.000      0.000
REMARK INTER + INTRA:          -5.878
REMARK INTER:                  -5.484
REMARK INTRA:                  -0.394
REMARK UNBOUND:                -0.394
REMARK  Name = 
REMARK  5 active torsions:
REMARK  status: ('A' for Active; 'I' for Inactive)
REMARK    1  A    between atoms: C_2  and  C_3
REMARK    2  A    between atoms: C_3  and  N_4
REMARK    3  A    between atoms: N_4  and  C_5
REMARK    4  A    between atoms: N_4  and  C_6
REMARK    5  A    between atoms: C_6  and  C_7
REMARK                            x       y       z     vdW  Elec       q    Type
REMARK                         _______ _______ _______ _____ _____    ______ ____
ROOT
ATOM      1  C   UNL     1      17.844   0.615 -28.693  0.00  0.00    +0.120 C 
ENDROOT
BRANCH   1   2
ATOM      2  C   UNL     1      17.857  -0.115 -27.365  0.00  0.00    -0.033 A 
ATOM      3  C   UNL     1      18.989  -0.074 -26.537  0.00  0.00    +0.005 A 
ATOM      4  C   UNL     1      18.992  -0.730 -25.305  0.00  0.00    +0.000 A 
ATOM      5  C   UNL     1      17.861  -1.428 -24.884  0.00  0.00    +0.000 A 
ATOM      6  C   UNL     1      16.728  -1.469 -25.693  0.00  0.00    +0.000 A 
ATOM      7  C   UNL     1      16.723  -0.814 -26.926  0.00  0.00    +0.005 A 
ENDBRANCH   1   2
BRANCH   1   8
ATOM      8  N   UNL     1      18.172   2.049 -28.588  0.00  0.00    -0.290 NA
ATOM      9  C   UNL     1      17.006   2.844 -28.988  0.00  0.00    +0.106 C 
BRANCH   8  10
ATOM     10  C   UNL     1      19.345   2.380 -29.417  0.00  0.00    +0.173 C 
BRANCH  10  12
ATOM     11  C   UNL     1      21.616   2.273 -28.007  0.00  0.00    +0.005 C 
ATOM     12  C   UNL     1      20.599   2.321 -28.644  0.00  0.00    -0.090 C 
ENDBRANCH  10  12
ENDBRANCH   8  10
ENDBRANCH   1   8
TORSDOF 4
ENDMDL
MODEL 2
REMARK VINA RESULT:    -3.906      2.421      3.706
REMARK INTER + INTRA:          -5.214
REMARK INTER:                  -4.974
REMARK INTRA:                  -0.239
REMARK UNBOUND:                -0.394
REMARK  Name = 
REMARK  5 active torsions:
REMARK  status: ('A' for Active; 'I' for Inactive)
REMARK    1  A    between atoms: C_2  and  C_3
REMARK    2  A    between atoms: C_3  and  N_4
REMARK    3  A    between atoms: N_4  and  C_5
REMARK    4  A    between atoms: N_4  and  C_6
REMARK    5  A    between atoms: C_6  and  C_7
REMARK                            x       y       z     vdW  Elec       q    Type
REMARK                         _______ _______ _______ _____ _____    ______ ____
ROOT
ATOM      1  C   UNL     1      16.664   1.457 -27.983  0.00  0.00    +0.120 C 
ENDROOT
BRANCH   1   2
ATOM      2  C   UNL     1      17.276   0.482 -26.998  0.00  0.00    -0.033 A 
ATOM      3  C   UNL     1      18.579   0.676 -26.513  0.00  0.00    +0.005 A 
ATOM      4  C   UNL     1      19.133  -0.212 -25.590  0.00  0.00    +0.000 A 
ATOM      5  C   UNL     1      18.389  -1.298 -25.134  0.00  0.00    +0.000 A 
ATOM      6  C   UNL     1      17.091  -1.498 -25.601  0.00  0.00    +0.000 A 
ATOM      7  C   UNL     1      16.535  -0.611 -26.524  0.00  0.00    +0.005 A 
ENDBRANCH   1   2
BRANCH   1   8
ATOM      8  N   UNL     1      15.421   2.089 -27.503  0.00  0.00    -0.290 NA
ATOM      9  C   UNL     1      14.752   2.757 -28.625  0.00  0.00    +0.106 C 
BRANCH   8  10
ATOM     10  C   UNL     1      15.704   3.042 -26.416  0.00  0.00    +0.173 C 
BRANCH  10  12
ATOM     11  C   UNL     1      13.479   4.242 -25.540  0.00  0.00    +0.005 C 
ATOM     12  C   UNL     1      14.478   3.701 -25.930  0.00  0.00    -0.090 C 
ENDBRANCH  10  12
ENDBRANCH   8  10
ENDBRANCH   1   8
TORSDOF 4
ENDMDL
MODEL 3
REMARK VINA RESULT:    -3.901      1.440      2.878
REMARK INTER + INTRA:          -5.207
REMARK INTER:                  -4.971
REMARK INTRA:                  -0.235
REMARK UNBOUND:                -0.394
REMARK  Name = 
REMARK  5 active torsions:
REMARK  status: ('A' for Active; 'I' for Inactive)
REMARK    1  A    between atoms: C_2  and  C_3
REMARK    2  A    between atoms: C_3  and  N_4
REMARK    3  A    between atoms: N_4  and  C_5
REMARK    4  A    between atoms: N_4  and  C_6
REMARK    5  A    between atoms: C_6  and  C_7
REMARK                            x       y       z     vdW  Elec       q    Type
REMARK                         _______ _______ _______ _____ _____    ______ ____
ROOT
ATOM      1  C   UNL     1      18.125   2.107 -27.556  0.00  0.00    +0.120 C 
ENDROOT
BRANCH   1   2
ATOM      2  C   UNL     1      17.872   0.802 -26.827  0.00  0.00    -0.033 A 
ATOM      3  C   UNL     1      16.693   0.074 -27.050  0.00  0.00    +0.005 A 
ATOM      4  C   UNL     1      16.472  -1.137 -26.393  0.00  0.00    +0.000 A 
ATOM      5  C   UNL     1      17.429  -1.638 -25.513  0.00  0.00    +0.000 A 
ATOM      6  C   UNL     1      18.608  -0.930 -25.290  0.00  0.00    +0.000 A 
ATOM      7  C   UNL     1      18.831   0.282 -25.946  0.00  0.00    +0.005 A 
ENDBRANCH   1   2
BRANCH   1   8
ATOM      8  N   UNL     1      18.270   1.955 -29.017  0.00  0.00    -0.290 NA
ATOM      9  C   UNL     1      19.578   2.475 -29.430  0.00  0.00    +0.106 C 
BRANCH   8  10
ATOM     10  C   UNL     1      17.179   2.648 -29.726  0.00  0.00    +0.173 C 
BRANCH  10  12
ATOM     11  C   UNL     1      17.013   1.892 -32.287  0.00  0.00    +0.005 C 
ATOM     12  C   UNL     1      17.087   2.227 -31.136  0.00  0.00    -0.090 C 
ENDBRANCH  10  12
ENDBRANCH   8  10
ENDBRANCH   1   8
TORSDOF 4
ENDMDL
MODEL 4
REMARK VINA RESULT:    -3.815      1.234      2.468
REMARK INTER + INTRA:          -5.101
REMARK INTER:                  -4.649
REMARK INTRA:                  -0.452
REMARK UNBOUND:                -0.394
REMARK  Name = 
REMARK  5 active torsions:
REMARK  status: ('A' for Active; 'I' for Inactive)
REMARK    1  A    between atoms: C_2  and  C_3
REMARK    2  A    between atoms: C_3  and  N_4
REMARK    3  A    between atoms: N_4  and  C_5
REMARK    4  A    between atoms: N_4  and  C_6
REMARK    5  A    between atoms: C_6  and  C_7
REMARK                            x       y       z     vdW  Elec       q    Type
REMARK                         _______ _______ _______ _____ _____    ______ ____
ROOT
ATOM      1  C   UNL     1      19.223   2.080 -26.403  0.00  0.00    +0.120 C 
ENDROOT
BRANCH   1   2
ATOM      2  C   UNL     1      18.476   0.772 -26.233  0.00  0.00    -0.033 A 
ATOM      3  C   UNL     1      18.958  -0.221 -25.367  0.00  0.00    +0.005 A 
ATOM      4  C   UNL     1      18.258  -1.416 -25.196  0.00  0.00    +0.000 A 
ATOM      5  C   UNL     1      17.065  -1.629 -25.883  0.00  0.00    +0.000 A 
ATOM      6  C   UNL     1      16.570  -0.647 -26.739  0.00  0.00    +0.000 A 
ATOM      7  C   UNL     1      17.269   0.549 -26.911  0.00  0.00    +0.005 A 
ENDBRANCH   1   2
BRANCH   1   8
ATOM      8  N   UNL     1      20.269   2.038 -27.442  0.00  0.00    -0.290 NA
ATOM      9  C   UNL     1      21.585   2.197 -26.812  0.00  0.00    +0.106 C 
BRANCH   8  10
ATOM     10  C   UNL     1      20.041   3.082 -28.457  0.00  0.00    +0.173 C 
BRANCH  10  12
ATOM     11  C   UNL     1      18.286   2.291 -30.315  0.00  0.00    +0.005 C 
ATOM     12  C   UNL     1      19.072   2.650 -29.481  0.00  0.00    -0.090 C 
ENDBRANCH  10  12
ENDBRANCH   8  10
ENDBRANCH   1   8
TORSDOF 4
ENDMDL
MODEL 5
REMARK VINA RESULT:    -3.642      2.527      3.793
REMARK INTER + INTRA:          -4.888
REMARK INTER:                  -4.652
REMARK INTRA:                  -0.236
REMARK UNBOUND:                -0.394
REMARK  Name = 
REMARK  5 active torsions:
REMARK  status: ('A' for Active; 'I' for Inactive)
REMARK    1  A    between atoms: C_2  and  C_3
REMARK    2  A    between atoms: C_3  and  N_4
REMARK    3  A    between atoms: N_4  and  C_5
REMARK    4  A    between atoms: N_4  and  C_6
REMARK    5  A    between atoms: C_6  and  C_7
REMARK                            x       y       z     vdW  Elec       q    Type
REMARK                         _______ _______ _______ _____ _____    ______ ____
ROOT
ATOM      1  C   UNL     1      17.176   2.823 -29.647  0.00  0.00    +0.120 C 
ENDROOT
BRANCH   1   2
ATOM      2  C   UNL     1      17.148   1.629 -28.715  0.00  0.00    -0.033 A 
ATOM      3  C   UNL     1      18.277   0.808 -28.570  0.00  0.00    +0.005 A 
ATOM      4  C   UNL     1      18.256  -0.280 -27.695  0.00  0.00    +0.000 A 
ATOM      5  C   UNL     1      17.111  -0.554 -26.950  0.00  0.00    +0.000 A 
ATOM      6  C   UNL     1      15.986   0.259 -27.079  0.00  0.00    +0.000 A 
ATOM      7  C   UNL     1      16.005   1.347 -27.953  0.00  0.00    +0.005 A 
ENDBRANCH   1   2
BRANCH   1   8
ATOM      8  N   UNL     1      17.560   2.489 -31.032  0.00  0.00    -0.290 NA
ATOM      9  C   UNL     1      18.708   3.312 -31.428  0.00  0.00    +0.106 C 
BRANCH   8  10
ATOM     10  C   UNL     1      16.426   2.688 -31.953  0.00  0.00    +0.173 C 
BRANCH  10  12
ATOM     11  C   UNL     1      16.435   0.910 -33.952  0.00  0.00    +0.005 C 
ATOM     12  C   UNL     1      16.432   1.705 -33.051  0.00  0.00    -0.090 C 
ENDBRANCH  10  12
ENDBRANCH   8  10
ENDBRANCH   1   8
TORSDOF 4
ENDMDL
MODEL 6
REMARK VINA RESULT:    -3.534      2.344      4.296
REMARK INTER + INTRA:          -4.754
REMARK INTER:                  -4.294
REMARK INTRA:                  -0.460
REMARK UNBOUND:                -0.394
REMARK  Name = 
REMARK  5 active torsions:
REMARK  status: ('A' for Active; 'I' for Inactive)
REMARK    1  A    between atoms: C_2  and  C_3
REMARK    2  A    between atoms: C_3  and  N_4
REMARK    3  A    between atoms: N_4  and  C_5
REMARK    4  A    between atoms: N_4  and  C_6
REMARK    5  A    between atoms: C_6  and  C_7
REMARK                            x       y       z     vdW  Elec       q    Type
REMARK                         _______ _______ _______ _____ _____    ______ ____
ROOT
ATOM      1  C   UNL     1      16.708   3.150 -29.371  0.00  0.00    +0.120 C 
ENDROOT
BRANCH   1   2
ATOM      2  C   UNL     1      16.866   1.845 -28.617  0.00  0.00    -0.033 A 
ATOM      3  C   UNL     1      18.005   1.046 -28.799  0.00  0.00    +0.005 A 
ATOM      4  C   UNL     1      18.158  -0.146 -28.088  0.00  0.00    +0.000 A 
ATOM      5  C   UNL     1      17.179  -0.547 -27.182  0.00  0.00    +0.000 A 
ATOM      6  C   UNL     1      16.048   0.242 -26.984  0.00  0.00    +0.000 A 
ATOM      7  C   UNL     1      15.892   1.434 -27.694  0.00  0.00    +0.005 A 
ENDBRANCH   1   2
BRANCH   1   8
ATOM      8  N   UNL     1      16.045   3.004 -30.681  0.00  0.00    -0.290 NA
ATOM      9  C   UNL     1      17.005   3.315 -31.746  0.00  0.00    +0.106 C 
BRANCH   8  10
ATOM     10  C   UNL     1      14.861   3.876 -30.769  0.00  0.00    +0.173 C 
BRANCH  10  12
ATOM     11  C   UNL     1      12.772   2.850 -29.448  0.00  0.00    +0.005 C 
ATOM     12  C   UNL     1      13.710   3.314 -30.038  0.00  0.00    -0.090 C 
ENDBRANCH  10  12
ENDBRANCH   8  10
ENDBRANCH   1   8
TORSDOF 4
ENDMDL
MODEL 7
REMARK VINA RESULT:    -3.453      2.146      3.126
REMARK INTER + INTRA:          -4.654
REMARK INTER:                  -4.200
REMARK INTRA:                  -0.455
REMARK UNBOUND:                -0.394
REMARK  Name = 
REMARK  5 active torsions:
REMARK  status: ('A' for Active; 'I' for Inactive)
REMARK    1  A    between atoms: C_2  and  C_3
REMARK    2  A    between atoms: C_3  and  N_4
REMARK    3  A    between atoms: N_4  and  C_5
REMARK    4  A    between atoms: N_4  and  C_6
REMARK    5  A    between atoms: C_6  and  C_7
REMARK                            x       y       z     vdW  Elec       q    Type
REMARK                         _______ _______ _______ _____ _____    ______ ____
ROOT
ATOM      1  C   UNL     1      15.369   1.882 -27.837  0.00  0.00    +0.120 C 
ENDROOT
BRANCH   1   2
ATOM      2  C   UNL     1      16.379   0.985 -27.150  0.00  0.00    -0.033 A 
ATOM      3  C   UNL     1      16.084  -0.364 -26.899  0.00  0.00    +0.005 A 
ATOM      4  C   UNL     1      17.023  -1.194 -26.285  0.00  0.00    +0.000 A 
ATOM      5  C   UNL     1      18.270  -0.688 -25.923  0.00  0.00    +0.000 A 
ATOM      6  C   UNL     1      18.579   0.647 -26.175  0.00  0.00    +0.000 A 
ATOM      7  C   UNL     1      17.641   1.479 -26.789  0.00  0.00    +0.005 A 
ENDBRANCH   1   2
BRANCH   1   8
ATOM      8  N   UNL     1      15.852   3.258 -28.063  0.00  0.00    -0.290 NA
ATOM      9  C   UNL     1      15.058   4.188 -27.253  0.00  0.00    +0.106 C 
BRANCH   8  10
ATOM     10  C   UNL     1      15.779   3.610 -29.492  0.00  0.00    +0.173 C 
BRANCH  10  12
ATOM     11  C   UNL     1      17.356   2.052 -30.990  0.00  0.00    +0.005 C 
ATOM     12  C   UNL     1      16.651   2.751 -30.314  0.00  0.00    -0.090 C 
ENDBRANCH  10  12
ENDBRANCH   8  10
ENDBRANCH   1   8
TORSDOF 4
ENDMDL
MODEL 8
REMARK VINA RESULT:    -3.407      9.546     11.067
REMARK INTER + INTRA:          -4.598
REMARK INTER:                  -4.312
REMARK INTRA:                  -0.287
REMARK UNBOUND:                -0.394
REMARK  Name = 
REMARK  5 active torsions:
REMARK  status: ('A' for Active; 'I' for Inactive)
REMARK    1  A    between atoms: C_2  and  C_3
REMARK    2  A    between atoms: C_3  and  N_4
REMARK    3  A    between atoms: N_4  and  C_5
REMARK    4  A    between atoms: N_4  and  C_6
REMARK    5  A    between atoms: C_6  and  C_7
REMARK                            x       y       z     vdW  Elec       q    Type
REMARK                         _______ _______ _______ _____ _____    ______ ____
ROOT
ATOM      1  C   UNL     1      17.201   1.970 -17.265  0.00  0.00    +0.120 C 
ENDROOT
BRANCH   1   2
ATOM      2  C   UNL     1      16.327   0.743 -17.432  0.00  0.00    -0.033 A 
ATOM      3  C   UNL     1      15.993   0.271 -18.710  0.00  0.00    +0.005 A 
ATOM      4  C   UNL     1      15.206  -0.872 -18.862  0.00  0.00    +0.000 A 
ATOM      5  C   UNL     1      14.751  -1.559 -17.739  0.00  0.00    +0.000 A 
ATOM      6  C   UNL     1      15.082  -1.106 -16.464  0.00  0.00    +0.000 A 
ATOM      7  C   UNL     1      15.870   0.037 -16.310  0.00  0.00    +0.005 A 
ENDBRANCH   1   2
BRANCH   1   8
ATOM      8  N   UNL     1      16.442   3.214 -17.033  0.00  0.00    -0.290 NA
ATOM      9  C   UNL     1      17.016   4.290 -17.848  0.00  0.00    +0.106 C 
BRANCH   8  10
ATOM     10  C   UNL     1      16.450   3.574 -15.604  0.00  0.00    +0.173 C 
BRANCH  10  12
ATOM     11  C   UNL     1      18.939   3.862 -14.664  0.00  0.00    +0.005 C 
ATOM     12  C   UNL     1      17.821   3.737 -15.087  0.00  0.00    -0.090 C 
ENDBRANCH  10  12
ENDBRANCH   8  10
ENDBRANCH   1   8
TORSDOF 4
ENDMDL
MODEL 9
REMARK VINA RESULT:    -3.385      1.568      4.440
REMARK INTER + INTRA:          -4.570
REMARK INTER:                  -4.223
REMARK INTRA:                  -0.347
REMARK UNBOUND:                -0.394
REMARK  Name = 
REMARK  5 active torsions:
REMARK  status: ('A' for Active; 'I' for Inactive)
REMARK    1  A    between atoms: C_2  and  C_3
REMARK    2  A    between atoms: C_3  and  N_4
REMARK    3  A    between atoms: N_4  and  C_5
REMARK    4  A    between atoms: N_4  and  C_6
REMARK    5  A    between atoms: C_6  and  C_7
REMARK                            x       y       z     vdW  Elec       q    Type
REMARK                         _______ _______ _______ _____ _____    ______ ____
ROOT
ATOM      1  C   UNL     1      18.869   2.257 -27.793  0.00  0.00    +0.120 C 
ENDROOT
BRANCH   1   2
ATOM      2  C   UNL     1      20.282   2.320 -27.248  0.00  0.00    -0.033 A 
ATOM      3  C   UNL     1      20.512   2.441 -25.869  0.00  0.00    +0.005 A 
ATOM      4  C   UNL     1      21.814   2.479 -25.367  0.00  0.00    +0.000 A 
ATOM      5  C   UNL     1      22.899   2.388 -26.236  0.00  0.00    +0.000 A 
ATOM      6  C   UNL     1      22.684   2.259 -27.607  0.00  0.00    +0.000 A 
ATOM      7  C   UNL     1      21.383   2.221 -28.111  0.00  0.00    +0.005 A 
ENDBRANCH   1   2
BRANCH   1   8
ATOM      8  N   UNL     1      18.687   1.255 -28.861  0.00  0.00    -0.290 NA
ATOM      9  C   UNL     1      17.508   1.608 -29.659  0.00  0.00    +0.106 C 
BRANCH   8  10
ATOM     10  C   UNL     1      18.552  -0.098 -28.292  0.00  0.00    +0.173 C 
BRANCH  10  12
ATOM     11  C   UNL     1      16.354  -0.335 -26.786  0.00  0.00    +0.005 C 
ATOM     12  C   UNL     1      17.343  -0.226 -27.459  0.00  0.00    -0.090 C 
ENDBRANCH  10  12
ENDBRANCH   8  10
ENDBRANCH   1   8
TORSDOF 4
ENDMDL
