MODEL 1
REMARK VINA RESULT:    -8.281      0.000      0.000
REMARK INTER + INTRA:          -9.548
REMARK INTER:                  -9.249
REMARK INTRA:                  -0.299
REMARK UNBOUND:                -0.299
REMARK  Name = 
REMARK  3 active torsions:
REMARK  status: ('A' for Active; 'I' for Inactive)
REMARK    1  A    between atoms: C_4  and  C_7
REMARK    2  A    between atoms: C_14  and  O_19
REMARK    3  A    between atoms: C_15  and  O_18
REMARK                            x       y       z     vdW  Elec       q    Type
REMARK                         _______ _______ _______ _____ _____    ______ ____
ROOT
ATOM      1  C   UNL     1      49.308 161.048  41.902  0.00  0.00    +0.139 A 
ATOM      2  C   UNL     1      50.641 161.143  41.776  0.00  0.00    +0.098 A 
ATOM      3  C   UNL     1      51.481 159.994  42.146  0.00  0.00    +0.193 A 
ATOM      4  O   UNL     1      52.699 160.039  42.033  0.00  0.00    -0.287 OA
ATOM      5  C   UNL     1      50.785 158.804  42.656  0.00  0.00    +0.068 A 
ATOM      6  C   UNL     1      49.397 158.835  42.752  0.00  0.00    +0.184 A 
ATOM      7  O   UNL     1      48.653 159.927  42.386  0.00  0.00    -0.451 OA
ATOM      8  C   UNL     1      48.734 157.712  43.240  0.00  0.00    +0.202 A 
ATOM      9  C   UNL     1      49.451 156.575  43.622  0.00  0.00    +0.162 A 
ATOM     10  C   UNL     1      50.837 156.541  43.524  0.00  0.00    +0.050 A 
ATOM     11  C   UNL     1      51.510 157.665  43.037  0.00  0.00    +0.019 A 
ENDROOT
BRANCH   1  15
ATOM     12  C   UNL     1      46.739 164.341  40.904  0.00  0.00    +0.000 A 
ATOM     13  C   UNL     1      46.199 163.192  41.477  0.00  0.00    +0.001 A 
ATOM     14  C   UNL     1      47.029 162.115  41.804  0.00  0.00    +0.011 A 
ATOM     15  C   UNL     1      48.411 162.170  41.556  0.00  0.00    +0.017 A 
ATOM     16  C   UNL     1      48.938 163.341  40.990  0.00  0.00    +0.011 A 
ATOM     17  C   UNL     1      48.109 164.417  40.663  0.00  0.00    +0.001 A 
ENDBRANCH   1  15
BRANCH   9  18
ATOM     18  O   UNL     1      48.738 155.506  44.093  0.00  0.00    -0.503 OA
ATOM     19  H   UNL     1      48.806 155.494  45.063  0.00  0.00    +0.292 HD
ENDBRANCH   9  18
BRANCH   8  20
ATOM     20  O   UNL     1      47.370 157.703  43.357  0.00  0.00    -0.501 OA
ATOM     21  H   UNL     1      47.156 158.499  43.884  0.00  0.00    +0.292 HD
ENDBRANCH   8  20
TORSDOF 3
ENDMDL
MODEL 2
REMARK VINA RESULT:    -8.049      1.043      3.065
REMARK INTER + INTRA:          -9.290
REMARK INTER:                  -8.992
REMARK INTRA:                  -0.298
REMARK UNBOUND:                -0.299
REMARK  Name = 
REMARK  3 active torsions:
REMARK  status: ('A' for Active; 'I' for Inactive)
REMARK    1  A    between atoms: C_4  and  C_7
REMARK    2  A    between atoms: C_14  and  O_19
REMARK    3  A    between atoms: C_15  and  O_18
REMARK                            x       y       z     vdW  Elec       q    Type
REMARK                         _______ _______ _______ _____ _____    ______ ____
ROOT
ATOM      1  C   UNL     1      48.840 160.578  42.020  0.00  0.00    +0.139 A 
ATOM      2  C   UNL     1      48.105 159.527  42.413  0.00  0.00    +0.098 A 
ATOM      3  C   UNL     1      48.785 158.299  42.852  0.00  0.00    +0.193 A 
ATOM      4  O   UNL     1      48.148 157.323  43.229  0.00  0.00    -0.287 OA
ATOM      5  C   UNL     1      50.254 158.307  42.811  0.00  0.00    +0.068 A 
ATOM      6  C   UNL     1      50.901 159.458  42.371  0.00  0.00    +0.184 A 
ATOM      7  O   UNL     1      50.225 160.584  41.979  0.00  0.00    -0.451 OA
ATOM      8  C   UNL     1      52.293 159.468  42.325  0.00  0.00    +0.202 A 
ATOM      9  C   UNL     1      53.024 158.344  42.718  0.00  0.00    +0.162 A 
ATOM     10  C   UNL     1      52.379 157.194  43.161  0.00  0.00    +0.050 A 
ATOM     11  C   UNL     1      50.982 157.175  43.208  0.00  0.00    +0.019 A 
ENDROOT
BRANCH   1  15
ATOM     12  C   UNL     1      47.076 164.259  40.687  0.00  0.00    +0.000 A 
ATOM     13  C   UNL     1      46.283 163.299  41.312  0.00  0.00    +0.001 A 
ATOM     14  C   UNL     1      46.850 162.097  41.749  0.00  0.00    +0.011 A 
ATOM     15  C   UNL     1      48.217 161.836  41.559  0.00  0.00    +0.017 A 
ATOM     16  C   UNL     1      49.002 162.821  40.939  0.00  0.00    +0.011 A 
ATOM     17  C   UNL     1      48.435 164.022  40.503  0.00  0.00    +0.001 A 
ENDBRANCH   1  15
BRANCH   9  18
ATOM     18  O   UNL     1      54.388 158.420  42.649  0.00  0.00    -0.503 OA
ATOM     19  H   UNL     1      54.660 158.246  41.731  0.00  0.00    +0.292 HD
ENDBRANCH   9  18
BRANCH   8  20
ATOM     20  O   UNL     1      52.969 160.577  41.892  0.00  0.00    -0.501 OA
ATOM     21  H   UNL     1      52.902 161.218  42.628  0.00  0.00    +0.292 HD
ENDBRANCH   8  20
TORSDOF 3
ENDMDL
MODEL 3
REMARK VINA RESULT:    -7.907      2.071      6.357
REMARK INTER + INTRA:          -9.131
REMARK INTER:                  -8.859
REMARK INTRA:                  -0.272
REMARK UNBOUND:                -0.299
REMARK  Name = 
REMARK  3 active torsions:
REMARK  status: ('A' for Active; 'I' for Inactive)
REMARK    1  A    between atoms: C_4  and  C_7
REMARK    2  A    between atoms: C_14  and  O_19
REMARK    3  A    between atoms: C_15  and  O_18
REMARK                            x       y       z     vdW  Elec       q    Type
REMARK                         _______ _______ _______ _____ _____    ______ ____
ROOT
ATOM      1  C   UNL     1      49.015 159.533  42.094  0.00  0.00    +0.139 A 
ATOM      2  C   UNL     1      47.788 159.990  41.800  0.00  0.00    +0.098 A 
ATOM      3  C   UNL     1      47.626 161.391  41.382  0.00  0.00    +0.193 A 
ATOM      4  O   UNL     1      46.524 161.841  41.093  0.00  0.00    -0.287 OA
ATOM      5  C   UNL     1      48.844 162.212  41.333  0.00  0.00    +0.068 A 
ATOM      6  C   UNL     1      50.058 161.622  41.675  0.00  0.00    +0.184 A 
ATOM      7  O   UNL     1      50.163 160.308  42.051  0.00  0.00    -0.451 OA
ATOM      8  C   UNL     1      51.214 162.397  41.635  0.00  0.00    +0.202 A 
ATOM      9  C   UNL     1      51.154 163.740  41.255  0.00  0.00    +0.162 A 
ATOM     10  C   UNL     1      49.944 164.330  40.910  0.00  0.00    +0.050 A 
ATOM     11  C   UNL     1      48.778 163.560  40.950  0.00  0.00    +0.019 A 
ENDROOT
BRANCH   1  15
ATOM     12  C   UNL     1      49.683 155.468  43.307  0.00  0.00    +0.000 A 
ATOM     13  C   UNL     1      48.923 156.314  44.112  0.00  0.00    +0.001 A 
ATOM     14  C   UNL     1      48.702 157.639  43.724  0.00  0.00    +0.011 A 
ATOM     15  C   UNL     1      49.243 158.139  42.529  0.00  0.00    +0.017 A 
ATOM     16  C   UNL     1      49.996 157.269  41.725  0.00  0.00    +0.011 A 
ATOM     17  C   UNL     1      50.217 155.944  42.112  0.00  0.00    +0.001 A 
ENDBRANCH   1  15
BRANCH   9  18
ATOM     18  O   UNL     1      52.327 164.446  41.238  0.00  0.00    -0.503 OA
ATOM     19  H   UNL     1      52.412 164.923  42.081  0.00  0.00    +0.292 HD
ENDBRANCH   9  18
BRANCH   8  20
ATOM     20  O   UNL     1      52.427 161.859  41.971  0.00  0.00    -0.501 OA
ATOM     21  H   UNL     1      52.342 161.611  42.913  0.00  0.00    +0.292 HD
ENDBRANCH   8  20
TORSDOF 3
ENDMDL
MODEL 4
REMARK VINA RESULT:    -7.822      2.673      6.830
REMARK INTER + INTRA:          -9.036
REMARK INTER:                  -8.740
REMARK INTRA:                  -0.296
REMARK UNBOUND:                -0.299
REMARK  Name = 
REMARK  3 active torsions:
REMARK  status: ('A' for Active; 'I' for Inactive)
REMARK    1  A    between atoms: C_4  and  C_7
REMARK    2  A    between atoms: C_14  and  O_19
REMARK    3  A    between atoms: C_15  and  O_18
REMARK                            x       y       z     vdW  Elec       q    Type
REMARK                         _______ _______ _______ _____ _____    ______ ____
ROOT
ATOM      1  C   UNL     1      49.119 161.297  41.357  0.00  0.00    +0.139 A 
ATOM      2  C   UNL     1      48.071 161.401  40.525  0.00  0.00    +0.098 A 
ATOM      3  C   UNL     1      47.494 162.728  40.259  0.00  0.00    +0.193 A 
ATOM      4  O   UNL     1      46.546 162.864  39.497  0.00  0.00    -0.287 OA
ATOM      5  C   UNL     1      48.111 163.867  40.953  0.00  0.00    +0.068 A 
ATOM      6  C   UNL     1      49.188 163.626  41.802  0.00  0.00    +0.184 A 
ATOM      7  O   UNL     1      49.698 162.372  42.013  0.00  0.00    -0.451 OA
ATOM      8  C   UNL     1      49.772 164.703  42.465  0.00  0.00    +0.202 A 
ATOM      9  C   UNL     1      49.287 165.999  42.278  0.00  0.00    +0.162 A 
ATOM     10  C   UNL     1      48.214 166.242  41.428  0.00  0.00    +0.050 A 
ATOM     11  C   UNL     1      47.621 165.168  40.760  0.00  0.00    +0.019 A 
ENDROOT
BRANCH   1  15
ATOM     12  C   UNL     1      50.867 157.486  42.282  0.00  0.00    +0.000 A 
ATOM     13  C   UNL     1      51.585 158.654  42.529  0.00  0.00    +0.001 A 
ATOM     14  C   UNL     1      51.022 159.899  42.230  0.00  0.00    +0.011 A 
ATOM     15  C   UNL     1      49.737 159.992  41.672  0.00  0.00    +0.017 A 
ATOM     16  C   UNL     1      49.024 158.805  41.442  0.00  0.00    +0.011 A 
ATOM     17  C   UNL     1      49.586 157.561  41.741  0.00  0.00    +0.001 A 
ENDBRANCH   1  15
BRANCH   9  18
ATOM     18  O   UNL     1      49.906 167.011  42.960  0.00  0.00    -0.503 OA
ATOM     19  H   UNL     1      50.664 166.638  43.444  0.00  0.00    +0.292 HD
ENDBRANCH   9  18
BRANCH   8  20
ATOM     20  O   UNL     1      50.828 164.508  43.314  0.00  0.00    -0.501 OA
ATOM     21  H   UNL     1      50.577 164.968  44.140  0.00  0.00    +0.292 HD
ENDBRANCH   8  20
TORSDOF 3
ENDMDL
MODEL 5
REMARK VINA RESULT:    -7.645      1.540      3.288
REMARK INTER + INTRA:          -8.838
REMARK INTER:                  -8.539
REMARK INTRA:                  -0.300
REMARK UNBOUND:                -0.299
REMARK  Name = 
REMARK  3 active torsions:
REMARK  status: ('A' for Active; 'I' for Inactive)
REMARK    1  A    between atoms: C_4  and  C_7
REMARK    2  A    between atoms: C_14  and  O_19
REMARK    3  A    between atoms: C_15  and  O_18
REMARK                            x       y       z     vdW  Elec       q    Type
REMARK                         _______ _______ _______ _____ _____    ______ ____
ROOT
ATOM      1  C   UNL     1      49.669 161.402  41.644  0.00  0.00    +0.139 A 
ATOM      2  C   UNL     1      48.464 160.840  41.824  0.00  0.00    +0.098 A 
ATOM      3  C   UNL     1      48.384 159.445  42.282  0.00  0.00    +0.193 A 
ATOM      4  O   UNL     1      47.303 158.902  42.470  0.00  0.00    -0.287 OA
ATOM      5  C   UNL     1      49.659 158.746  42.497  0.00  0.00    +0.068 A 
ATOM      6  C   UNL     1      50.845 159.437  42.262  0.00  0.00    +0.184 A 
ATOM      7  O   UNL     1      50.871 160.741  41.844  0.00  0.00    -0.451 OA
ATOM      8  C   UNL     1      52.055 158.776  42.459  0.00  0.00    +0.202 A 
ATOM      9  C   UNL     1      52.076 157.447  42.888  0.00  0.00    +0.162 A 
ATOM     10  C   UNL     1      50.893 156.756  43.126  0.00  0.00    +0.050 A 
ATOM     11  C   UNL     1      49.674 157.411  42.929  0.00  0.00    +0.019 A 
ENDROOT
BRANCH   1  15
ATOM     12  C   UNL     1      50.052 165.450  40.262  0.00  0.00    +0.000 A 
ATOM     13  C   UNL     1      51.195 164.684  40.485  0.00  0.00    +0.001 A 
ATOM     14  C   UNL     1      51.078 163.365  40.935  0.00  0.00    +0.011 A 
ATOM     15  C   UNL     1      49.817 162.796  41.176  0.00  0.00    +0.017 A 
ATOM     16  C   UNL     1      48.677 163.579  40.935  0.00  0.00    +0.011 A 
ATOM     17  C   UNL     1      48.793 164.897  40.484  0.00  0.00    +0.001 A 
ENDBRANCH   1  15
BRANCH   9  18
ATOM     18  O   UNL     1      53.299 156.857  43.062  0.00  0.00    -0.503 OA
ATOM     19  H   UNL     1      53.777 156.885  42.215  0.00  0.00    +0.292 HD
ENDBRANCH   9  18
BRANCH   8  20
ATOM     20  O   UNL     1      53.243 159.416  42.233  0.00  0.00    -0.501 OA
ATOM     21  H   UNL     1      53.907 158.904  42.738  0.00  0.00    +0.292 HD
ENDBRANCH   8  20
TORSDOF 3
ENDMDL
MODEL 6
REMARK VINA RESULT:    -7.540      2.492      6.458
REMARK INTER + INTRA:          -8.721
REMARK INTER:                  -8.422
REMARK INTRA:                  -0.299
REMARK UNBOUND:                -0.299
REMARK  Name = 
REMARK  3 active torsions:
REMARK  status: ('A' for Active; 'I' for Inactive)
REMARK    1  A    between atoms: C_4  and  C_7
REMARK    2  A    between atoms: C_14  and  O_19
REMARK    3  A    between atoms: C_15  and  O_18
REMARK                            x       y       z     vdW  Elec       q    Type
REMARK                         _______ _______ _______ _____ _____    ______ ____
ROOT
ATOM      1  C   UNL     1      50.713 160.790  41.833  0.00  0.00    +0.139 A 
ATOM      2  C   UNL     1      49.758 159.895  42.129  0.00  0.00    +0.098 A 
ATOM      3  C   UNL     1      48.346 160.280  41.990  0.00  0.00    +0.193 A 
ATOM      4  O   UNL     1      47.446 159.486  42.239  0.00  0.00    -0.287 OA
ATOM      5  C   UNL     1      48.075 161.653  41.543  0.00  0.00    +0.068 A 
ATOM      6  C   UNL     1      49.155 162.492  41.278  0.00  0.00    +0.184 A 
ATOM      7  O   UNL     1      50.457 162.087  41.414  0.00  0.00    -0.451 OA
ATOM      8  C   UNL     1      48.904 163.796  40.860  0.00  0.00    +0.202 A 
ATOM      9  C   UNL     1      47.592 164.250  40.705  0.00  0.00    +0.162 A 
ATOM     10  C   UNL     1      46.512 163.414  40.966  0.00  0.00    +0.050 A 
ATOM     11  C   UNL     1      46.756 162.104  41.388  0.00  0.00    +0.019 A 
ENDROOT
BRANCH   1  15
ATOM     12  C   UNL     1      54.899 159.895  42.170  0.00  0.00    +0.000 A 
ATOM     13  C   UNL     1      53.957 158.895  42.403  0.00  0.00    +0.001 A 
ATOM     14  C   UNL     1      52.592 159.179  42.296  0.00  0.00    +0.011 A 
ATOM     15  C   UNL     1      52.150 160.469  41.961  0.00  0.00    +0.017 A 
ATOM     16  C   UNL     1      53.114 161.460  41.717  0.00  0.00    +0.011 A 
ATOM     17  C   UNL     1      54.478 161.176  41.824  0.00  0.00    +0.001 A 
ENDBRANCH   1  15
BRANCH   9  18
ATOM     18  O   UNL     1      47.415 165.543  40.291  0.00  0.00    -0.503 OA
ATOM     19  H   UNL     1      46.682 165.564  39.652  0.00  0.00    +0.292 HD
ENDBRANCH   9  18
BRANCH   8  20
ATOM     20  O   UNL     1      49.936 164.655  40.596  0.00  0.00    -0.501 OA
ATOM     21  H   UNL     1      49.908 165.314  41.318  0.00  0.00    +0.292 HD
ENDBRANCH   8  20
TORSDOF 3
ENDMDL
MODEL 7
REMARK VINA RESULT:    -7.218      2.906      5.144
REMARK INTER + INTRA:          -8.361
REMARK INTER:                  -8.065
REMARK INTRA:                  -0.296
REMARK UNBOUND:                -0.299
REMARK  Name = 
REMARK  3 active torsions:
REMARK  status: ('A' for Active; 'I' for Inactive)
REMARK    1  A    between atoms: C_4  and  C_7
REMARK    2  A    between atoms: C_14  and  O_19
REMARK    3  A    between atoms: C_15  and  O_18
REMARK                            x       y       z     vdW  Elec       q    Type
REMARK                         _______ _______ _______ _____ _____    ______ ____
ROOT
ATOM      1  C   UNL     1      52.342 159.502  42.117  0.00  0.00    +0.139 A 
ATOM      2  C   UNL     1      51.224 160.241  42.171  0.00  0.00    +0.098 A 
ATOM      3  C   UNL     1      49.959 159.602  42.561  0.00  0.00    +0.193 A 
ATOM      4  O   UNL     1      48.920 160.246  42.634  0.00  0.00    -0.287 OA
ATOM      5  C   UNL     1      50.008 158.162  42.854  0.00  0.00    +0.068 A 
ATOM      6  C   UNL     1      51.231 157.504  42.750  0.00  0.00    +0.184 A 
ATOM      7  O   UNL     1      52.388 158.144  42.390  0.00  0.00    -0.451 OA
ATOM      8  C   UNL     1      51.282 156.138  43.020  0.00  0.00    +0.202 A 
ATOM      9  C   UNL     1      50.127 155.446  43.394  0.00  0.00    +0.162 A 
ATOM     10  C   UNL     1      48.906 156.103  43.501  0.00  0.00    +0.050 A 
ATOM     11  C   UNL     1      48.846 157.472  43.229  0.00  0.00    +0.019 A 
ENDROOT
BRANCH   1  15
ATOM     12  C   UNL     1      56.145 161.145  40.987  0.00  0.00    +0.000 A 
ATOM     13  C   UNL     1      55.107 161.997  41.359  0.00  0.00    +0.001 A 
ATOM     14  C   UNL     1      53.865 161.469  41.727  0.00  0.00    +0.011 A 
ATOM     15  C   UNL     1      53.643 160.082  41.722  0.00  0.00    +0.017 A 
ATOM     16  C   UNL     1      54.704 159.240  41.357  0.00  0.00    +0.011 A 
ATOM     17  C   UNL     1      55.945 159.767  40.988  0.00  0.00    +0.001 A 
ENDBRANCH   1  15
BRANCH   9  18
ATOM     18  O   UNL     1      50.246 154.106  43.645  0.00  0.00    -0.503 OA
ATOM     19  H   UNL     1      49.389 153.776  43.966  0.00  0.00    +0.292 HD
ENDBRANCH   9  18
BRANCH   8  20
ATOM     20  O   UNL     1      52.461 155.452  42.922  0.00  0.00    -0.501 OA
ATOM     21  H   UNL     1      52.995 155.755  43.684  0.00  0.00    +0.292 HD
ENDBRANCH   8  20
TORSDOF 3
ENDMDL
MODEL 8
REMARK VINA RESULT:    -7.203      2.438      4.142
REMARK INTER + INTRA:          -8.345
REMARK INTER:                  -8.050
REMARK INTRA:                  -0.294
REMARK UNBOUND:                -0.299
REMARK  Name = 
REMARK  3 active torsions:
REMARK  status: ('A' for Active; 'I' for Inactive)
REMARK    1  A    between atoms: C_4  and  C_7
REMARK    2  A    between atoms: C_14  and  O_19
REMARK    3  A    between atoms: C_15  and  O_18
REMARK                            x       y       z     vdW  Elec       q    Type
REMARK                         _______ _______ _______ _____ _____    ______ ____
ROOT
ATOM      1  C   UNL     1      49.914 163.087  40.974  0.00  0.00    +0.139 A 
ATOM      2  C   UNL     1      48.583 163.082  40.801  0.00  0.00    +0.098 A 
ATOM      3  C   UNL     1      47.811 161.894  41.196  0.00  0.00    +0.193 A 
ATOM      4  O   UNL     1      46.594 161.858  41.065  0.00  0.00    -0.287 OA
ATOM      5  C   UNL     1      48.573 160.766  41.750  0.00  0.00    +0.068 A 
ATOM      6  C   UNL     1      49.955 160.889  41.867  0.00  0.00    +0.184 A 
ATOM      7  O   UNL     1      50.632 162.021  41.493  0.00  0.00    -0.451 OA
ATOM      8  C   UNL     1      50.682 159.820  42.386  0.00  0.00    +0.202 A 
ATOM      9  C   UNL     1      50.033 158.649  42.783  0.00  0.00    +0.162 A 
ATOM     10  C   UNL     1      48.653 158.524  42.669  0.00  0.00    +0.050 A 
ATOM     11  C   UNL     1      47.917 159.592  42.148  0.00  0.00    +0.019 A 
ENDROOT
BRANCH   1  15
ATOM     12  C   UNL     1      52.289 166.477  39.834  0.00  0.00    +0.000 A 
ATOM     13  C   UNL     1      52.865 165.209  39.867  0.00  0.00    +0.001 A 
ATOM     14  C   UNL     1      52.098 164.100  40.238  0.00  0.00    +0.011 A 
ATOM     15  C   UNL     1      50.746 164.245  40.588  0.00  0.00    +0.017 A 
ATOM     16  C   UNL     1      50.180 165.529  40.537  0.00  0.00    +0.011 A 
ATOM     17  C   UNL     1      50.947 166.637  40.166  0.00  0.00    +0.001 A 
ENDBRANCH   1  15
BRANCH   9  18
ATOM     18  O   UNL     1      50.806 157.636  43.284  0.00  0.00    -0.503 OA
ATOM     19  H   UNL     1      51.591 158.028  43.704  0.00  0.00    +0.292 HD
ENDBRANCH   9  18
BRANCH   8  20
ATOM     20  O   UNL     1      52.042 159.898  42.512  0.00  0.00    -0.501 OA
ATOM     21  H   UNL     1      52.225 160.837  42.713  0.00  0.00    +0.292 HD
ENDBRANCH   8  20
TORSDOF 3
ENDMDL
MODEL 9
REMARK VINA RESULT:    -7.181      2.128      3.019
REMARK INTER + INTRA:          -8.320
REMARK INTER:                  -8.023
REMARK INTRA:                  -0.297
REMARK UNBOUND:                -0.299
REMARK  Name = 
REMARK  3 active torsions:
REMARK  status: ('A' for Active; 'I' for Inactive)
REMARK    1  A    between atoms: C_4  and  C_7
REMARK    2  A    between atoms: C_14  and  O_19
REMARK    3  A    between atoms: C_15  and  O_18
REMARK                            x       y       z     vdW  Elec       q    Type
REMARK                         _______ _______ _______ _____ _____    ______ ____
ROOT
ATOM      1  C   UNL     1      50.388 162.185  41.423  0.00  0.00    +0.139 A 
ATOM      2  C   UNL     1      51.439 162.991  41.208  0.00  0.00    +0.098 A 
ATOM      3  C   UNL     1      52.799 162.461  41.388  0.00  0.00    +0.193 A 
ATOM      4  O   UNL     1      53.783 163.163  41.189  0.00  0.00    -0.287 OA
ATOM      5  C   UNL     1      52.911 161.060  41.817  0.00  0.00    +0.068 A 
ATOM      6  C   UNL     1      51.742 160.330  42.019  0.00  0.00    +0.184 A 
ATOM      7  O   UNL     1      50.494 160.864  41.830  0.00  0.00    -0.451 OA
ATOM      8  C   UNL     1      51.843 159.004  42.432  0.00  0.00    +0.202 A 
ATOM      9  C   UNL     1      53.095 158.418  42.634  0.00  0.00    +0.162 A 
ATOM     10  C   UNL     1      54.263 159.144  42.429  0.00  0.00    +0.050 A 
ATOM     11  C   UNL     1      54.171 160.476  42.018  0.00  0.00    +0.019 A 
ENDROOT
BRANCH   1  15
ATOM     12  C   UNL     1      46.334 163.517  40.949  0.00  0.00    +0.000 A 
ATOM     13  C   UNL     1      47.368 164.450  40.987  0.00  0.00    +0.001 A 
ATOM     14  C   UNL     1      48.691 164.024  41.142  0.00  0.00    +0.011 A 
ATOM     15  C   UNL     1      48.997 162.659  41.268  0.00  0.00    +0.017 A 
ATOM     16  C   UNL     1      47.943 161.734  41.216  0.00  0.00    +0.011 A 
ATOM     17  C   UNL     1      46.621 162.159  41.061  0.00  0.00    +0.001 A 
ENDBRANCH   1  15
BRANCH   9  18
ATOM     18  O   UNL     1      53.124 157.111  43.039  0.00  0.00    -0.503 OA
ATOM     19  H   UNL     1      53.538 157.070  43.918  0.00  0.00    +0.292 HD
ENDBRANCH   9  18
BRANCH   8  20
ATOM     20  O   UNL     1      50.719 158.254  42.649  0.00  0.00    -0.501 OA
ATOM     21  H   UNL     1      50.685 157.627  41.899  0.00  0.00    +0.292 HD
ENDBRANCH   8  20
TORSDOF 3
ENDMDL
