MODEL 1
REMARK VINA RESULT:    -8.471      0.000      0.000
REMARK INTER + INTRA:         -10.019
REMARK INTER:                  -9.709
REMARK INTRA:                  -0.310
REMARK UNBOUND:                -0.310
REMARK  Name = 
REMARK  4 active torsions:
REMARK  status: ('A' for Active; 'I' for Inactive)
REMARK    1  A    between atoms: C_3  and  O_20
REMARK    2  A    between atoms: C_6  and  C_7
REMARK    3  A    between atoms: C_12  and  O_19
REMARK    4  A    between atoms: C_14  and  O_18
REMARK                            x       y       z     vdW  Elec       q    Type
REMARK                         _______ _______ _______ _____ _____    ______ ____
ROOT
ATOM      1  C   UNL     1      50.128 160.405  41.765  0.00  0.00    +0.139 A 
ATOM      2  C   UNL     1      51.445 160.451  42.008  0.00  0.00    +0.098 A 
ATOM      3  C   UNL     1      52.136 159.223  42.428  0.00  0.00    +0.197 A 
ATOM      4  O   UNL     1      53.339 159.209  42.667  0.00  0.00    -0.287 OA
ATOM      5  C   UNL     1      51.324 158.007  42.549  0.00  0.00    +0.105 A 
ATOM      6  C   UNL     1      51.884 156.786  42.942  0.00  0.00    +0.135 A 
ATOM      7  C   UNL     1      51.084 155.650  43.048  0.00  0.00    +0.091 A 
ATOM      8  C   UNL     1      49.727 155.747  42.755  0.00  0.00    +0.124 A 
ATOM      9  C   UNL     1      49.159 156.957  42.362  0.00  0.00    +0.092 A 
ATOM     10  C   UNL     1      49.965 158.090  42.259  0.00  0.00    +0.146 A 
ATOM     11  O   UNL     1      49.356 159.257  41.868  0.00  0.00    -0.454 OA
ENDROOT
BRANCH   1  17
ATOM     12  C   UNL     1      49.928 162.879  41.514  0.00  0.00    +0.015 A 
ATOM     13  C   UNL     1      49.238 164.023  41.102  0.00  0.00    +0.046 A 
ATOM     14  C   UNL     1      47.995 163.890  40.496  0.00  0.00    +0.117 A 
ATOM     15  C   UNL     1      47.434 162.635  40.295  0.00  0.00    +0.046 A 
ATOM     16  C   UNL     1      48.124 161.492  40.708  0.00  0.00    +0.015 A 
ATOM     17  C   UNL     1      49.377 161.600  41.331  0.00  0.00    +0.018 A 
BRANCH  14  18
ATOM     18  O   UNL     1      47.287 164.976  40.078  0.00  0.00    -0.507 OA
ATOM     19  H   UNL     1      47.908 165.697  39.883  0.00  0.00    +0.292 HD
ENDBRANCH  14  18
ENDBRANCH   1  17
BRANCH   8  20
ATOM     20  O   UNL     1      48.904 154.663  42.843  0.00  0.00    -0.507 OA
ATOM     21  H   UNL     1      48.453 154.541  41.989  0.00  0.00    +0.292 HD
ENDBRANCH   8  20
BRANCH   6  22
ATOM     22  O   UNL     1      53.212 156.636  43.240  0.00  0.00    -0.506 OA
ATOM     23  H   UNL     1      53.420 155.674  43.235  0.00  0.00    +0.292 HD
ENDBRANCH   6  22
TORSDOF 4
ENDMDL
MODEL 2
REMARK VINA RESULT:    -8.306      1.305      2.907
REMARK INTER + INTRA:          -9.829
REMARK INTER:                  -9.516
REMARK INTRA:                  -0.313
REMARK UNBOUND:                -0.310
REMARK  Name = 
REMARK  4 active torsions:
REMARK  status: ('A' for Active; 'I' for Inactive)
REMARK    1  A    between atoms: C_3  and  O_20
REMARK    2  A    between atoms: C_6  and  C_7
REMARK    3  A    between atoms: C_12  and  O_19
REMARK    4  A    between atoms: C_14  and  O_18
REMARK                            x       y       z     vdW  Elec       q    Type
REMARK                         _______ _______ _______ _____ _____    ______ ____
ROOT
ATOM      1  C   UNL     1      48.961 160.450  42.010  0.00  0.00    +0.139 A 
ATOM      2  C   UNL     1      48.073 159.558  42.473  0.00  0.00    +0.098 A 
ATOM      3  C   UNL     1      48.554 158.250  42.940  0.00  0.00    +0.197 A 
ATOM      4  O   UNL     1      47.786 157.396  43.368  0.00  0.00    -0.287 OA
ATOM      5  C   UNL     1      49.999 158.006  42.873  0.00  0.00    +0.105 A 
ATOM      6  C   UNL     1      50.560 156.794  43.292  0.00  0.00    +0.135 A 
ATOM      7  C   UNL     1      51.936 156.595  43.215  0.00  0.00    +0.091 A 
ATOM      8  C   UNL     1      52.743 157.616  42.719  0.00  0.00    +0.124 A 
ATOM      9  C   UNL     1      52.196 158.826  42.300  0.00  0.00    +0.092 A 
ATOM     10  C   UNL     1      50.817 159.019  42.379  0.00  0.00    +0.146 A 
ATOM     11  O   UNL     1      50.329 160.230  41.954  0.00  0.00    -0.454 OA
ENDROOT
BRANCH   1  17
ATOM     12  C   UNL     1      47.179 162.090  41.410  0.00  0.00    +0.015 A 
ATOM     13  C   UNL     1      46.763 163.351  40.971  0.00  0.00    +0.046 A 
ATOM     14  C   UNL     1      47.714 164.316  40.664  0.00  0.00    +0.117 A 
ATOM     15  C   UNL     1      49.070 164.041  40.790  0.00  0.00    +0.046 A 
ATOM     16  C   UNL     1      49.485 162.780  41.228  0.00  0.00    +0.015 A 
ATOM     17  C   UNL     1      48.545 161.785  41.536  0.00  0.00    +0.018 A 
BRANCH  14  18
ATOM     18  O   UNL     1      47.355 165.557  40.234  0.00  0.00    -0.507 OA
ATOM     19  H   UNL     1      47.671 165.675  39.323  0.00  0.00    +0.292 HD
ENDBRANCH  14  18
ENDBRANCH   1  17
BRANCH   8  20
ATOM     20  O   UNL     1      54.096 157.468  42.626  0.00  0.00    -0.507 OA
ATOM     21  H   UNL     1      54.515 157.945  43.363  0.00  0.00    +0.292 HD
ENDBRANCH   8  20
BRANCH   6  22
ATOM     22  O   UNL     1      49.813 155.759  43.788  0.00  0.00    -0.506 OA
ATOM     23  H   UNL     1      48.870 156.040  43.802  0.00  0.00    +0.292 HD
ENDBRANCH   6  22
TORSDOF 4
ENDMDL
MODEL 3
REMARK VINA RESULT:    -8.177      1.750      7.127
REMARK INTER + INTRA:          -9.682
REMARK INTER:                  -9.396
REMARK INTRA:                  -0.286
REMARK UNBOUND:                -0.310
REMARK  Name = 
REMARK  4 active torsions:
REMARK  status: ('A' for Active; 'I' for Inactive)
REMARK    1  A    between atoms: C_3  and  O_20
REMARK    2  A    between atoms: C_6  and  C_7
REMARK    3  A    between atoms: C_12  and  O_19
REMARK    4  A    between atoms: C_14  and  O_18
REMARK                            x       y       z     vdW  Elec       q    Type
REMARK                         _______ _______ _______ _____ _____    ______ ____
ROOT
ATOM      1  C   UNL     1      48.951 160.048  41.804  0.00  0.00    +0.139 A 
ATOM      2  C   UNL     1      47.734 160.511  41.482  0.00  0.00    +0.098 A 
ATOM      3  C   UNL     1      47.595 161.908  41.047  0.00  0.00    +0.197 A 
ATOM      4  O   UNL     1      46.506 162.384  40.746  0.00  0.00    -0.287 OA
ATOM      5  C   UNL     1      48.818 162.715  40.987  0.00  0.00    +0.105 A 
ATOM      6  C   UNL     1      48.796 164.056  40.587  0.00  0.00    +0.135 A 
ATOM      7  C   UNL     1      49.976 164.794  40.541  0.00  0.00    +0.091 A 
ATOM      8  C   UNL     1      51.174 164.180  40.896  0.00  0.00    +0.124 A 
ATOM      9  C   UNL     1      51.209 162.847  41.295  0.00  0.00    +0.092 A 
ATOM     10  C   UNL     1      50.024 162.113  41.340  0.00  0.00    +0.146 A 
ATOM     11  O   UNL     1      50.113 160.803  41.739  0.00  0.00    -0.454 OA
ENDROOT
BRANCH   1  17
ATOM     12  C   UNL     1      48.340 158.098  43.233  0.00  0.00    +0.015 A 
ATOM     13  C   UNL     1      48.515 156.775  43.653  0.00  0.00    +0.046 A 
ATOM     14  C   UNL     1      49.510 156.000  43.070  0.00  0.00    +0.117 A 
ATOM     15  C   UNL     1      50.327 156.524  42.076  0.00  0.00    +0.046 A 
ATOM     16  C   UNL     1      50.151 157.845  41.658  0.00  0.00    +0.015 A 
ATOM     17  C   UNL     1      49.160 158.653  42.238  0.00  0.00    +0.018 A 
BRANCH  14  18
ATOM     18  O   UNL     1      49.717 154.708  43.447  0.00  0.00    -0.507 OA
ATOM     19  H   UNL     1      50.667 154.516  43.395  0.00  0.00    +0.292 HD
ENDBRANCH  14  18
ENDBRANCH   1  17
BRANCH   8  20
ATOM     20  O   UNL     1      52.355 164.861  40.866  0.00  0.00    -0.507 OA
ATOM     21  H   UNL     1      52.294 165.622  41.470  0.00  0.00    +0.292 HD
ENDBRANCH   8  20
BRANCH   6  22
ATOM     22  O   UNL     1      47.646 164.707  40.227  0.00  0.00    -0.506 OA
ATOM     23  H   UNL     1      47.844 165.670  40.169  0.00  0.00    +0.292 HD
ENDBRANCH   6  22
TORSDOF 4
ENDMDL
MODEL 4
REMARK VINA RESULT:    -8.106      1.792      6.686
REMARK INTER + INTRA:          -9.600
REMARK INTER:                  -9.328
REMARK INTRA:                  -0.272
REMARK UNBOUND:                -0.310
REMARK  Name = 
REMARK  4 active torsions:
REMARK  status: ('A' for Active; 'I' for Inactive)
REMARK    1  A    between atoms: C_3  and  O_20
REMARK    2  A    between atoms: C_6  and  C_7
REMARK    3  A    between atoms: C_12  and  O_19
REMARK    4  A    between atoms: C_14  and  O_18
REMARK                            x       y       z     vdW  Elec       q    Type
REMARK                         _______ _______ _______ _____ _____    ______ ____
ROOT
ATOM      1  C   UNL     1      49.554 159.594  42.191  0.00  0.00    +0.139 A 
ATOM      2  C   UNL     1      50.718 160.235  42.018  0.00  0.00    +0.098 A 
ATOM      3  C   UNL     1      50.701 161.660  41.658  0.00  0.00    +0.197 A 
ATOM      4  O   UNL     1      51.736 162.294  41.482  0.00  0.00    -0.287 OA
ATOM      5  C   UNL     1      49.387 162.298  41.518  0.00  0.00    +0.105 A 
ATOM      6  C   UNL     1      49.259 163.650  41.178  0.00  0.00    +0.135 A 
ATOM      7  C   UNL     1      47.997 164.224  41.052  0.00  0.00    +0.091 A 
ATOM      8  C   UNL     1      46.869 163.438  41.271  0.00  0.00    +0.124 A 
ATOM      9  C   UNL     1      46.984 162.092  41.610  0.00  0.00    +0.092 A 
ATOM     10  C   UNL     1      48.251 161.522  41.734  0.00  0.00    +0.146 A 
ATOM     11  O   UNL     1      48.309 160.193  42.070  0.00  0.00    -0.454 OA
ENDROOT
BRANCH   1  17
ATOM     12  C   UNL     1      50.000 157.193  41.680  0.00  0.00    +0.015 A 
ATOM     13  C   UNL     1      49.969 155.836  42.015  0.00  0.00    +0.046 A 
ATOM     14  C   UNL     1      49.447 155.448  43.243  0.00  0.00    +0.117 A 
ATOM     15  C   UNL     1      48.959 156.392  44.137  0.00  0.00    +0.046 A 
ATOM     16  C   UNL     1      48.990 157.748  43.801  0.00  0.00    +0.015 A 
ATOM     17  C   UNL     1      49.503 158.166  42.563  0.00  0.00    +0.018 A 
BRANCH  14  18
ATOM     18  O   UNL     1      49.397 154.137  43.612  0.00  0.00    -0.507 OA
ATOM     19  H   UNL     1      49.592 154.073  44.561  0.00  0.00    +0.292 HD
ENDBRANCH  14  18
ENDBRANCH   1  17
BRANCH   8  20
ATOM     20  O   UNL     1      45.612 163.956  41.161  0.00  0.00    -0.507 OA
ATOM     21  H   UNL     1      45.102 163.412  40.536  0.00  0.00    +0.292 HD
ENDBRANCH   8  20
BRANCH   6  22
ATOM     22  O   UNL     1      50.334 164.467  40.953  0.00  0.00    -0.506 OA
ATOM     23  H   UNL     1      51.133 163.902  40.849  0.00  0.00    +0.292 HD
ENDBRANCH   6  22
TORSDOF 4
ENDMDL
MODEL 5
REMARK VINA RESULT:    -8.065      1.792      6.666
REMARK INTER + INTRA:          -9.554
REMARK INTER:                  -9.283
REMARK INTRA:                  -0.270
REMARK UNBOUND:                -0.310
REMARK  Name = 
REMARK  4 active torsions:
REMARK  status: ('A' for Active; 'I' for Inactive)
REMARK    1  A    between atoms: C_3  and  O_20
REMARK    2  A    between atoms: C_6  and  C_7
REMARK    3  A    between atoms: C_12  and  O_19
REMARK    4  A    between atoms: C_14  and  O_18
REMARK                            x       y       z     vdW  Elec       q    Type
REMARK                         _______ _______ _______ _____ _____    ______ ____
ROOT
ATOM      1  C   UNL     1      49.588 159.622  42.178  0.00  0.00    +0.139 A 
ATOM      2  C   UNL     1      50.754 160.269  42.038  0.00  0.00    +0.098 A 
ATOM      3  C   UNL     1      50.740 161.697  41.690  0.00  0.00    +0.197 A 
ATOM      4  O   UNL     1      51.777 162.335  41.545  0.00  0.00    -0.287 OA
ATOM      5  C   UNL     1      49.428 162.331  41.522  0.00  0.00    +0.105 A 
ATOM      6  C   UNL     1      49.303 163.685  41.189  0.00  0.00    +0.135 A 
ATOM      7  C   UNL     1      48.042 164.257  41.037  0.00  0.00    +0.091 A 
ATOM      8  C   UNL     1      46.912 163.464  41.222  0.00  0.00    +0.124 A 
ATOM      9  C   UNL     1      47.024 162.117  41.553  0.00  0.00    +0.092 A 
ATOM     10  C   UNL     1      48.289 161.550  41.703  0.00  0.00    +0.146 A 
ATOM     11  O   UNL     1      48.344 160.218  42.031  0.00  0.00    -0.454 OA
ENDROOT
BRANCH   1  17
ATOM     12  C   UNL     1      49.015 157.801  43.783  0.00  0.00    +0.015 A 
ATOM     13  C   UNL     1      48.945 156.451  44.141  0.00  0.00    +0.046 A 
ATOM     14  C   UNL     1      49.387 155.484  43.246  0.00  0.00    +0.117 A 
ATOM     15  C   UNL     1      49.893 155.845  42.004  0.00  0.00    +0.046 A 
ATOM     16  C   UNL     1      49.963 157.194  41.648  0.00  0.00    +0.015 A 
ATOM     17  C   UNL     1      49.533 158.192  42.537  0.00  0.00    +0.018 A 
BRANCH  14  18
ATOM     18  O   UNL     1      49.337 154.157  43.550  0.00  0.00    -0.507 OA
ATOM     19  H   UNL     1      50.241 153.840  43.708  0.00  0.00    +0.292 HD
ENDBRANCH  14  18
ENDBRANCH   1  17
BRANCH   8  20
ATOM     20  O   UNL     1      45.656 163.979  41.085  0.00  0.00    -0.507 OA
ATOM     21  H   UNL     1      45.692 164.736  40.474  0.00  0.00    +0.292 HD
ENDBRANCH   8  20
BRANCH   6  22
ATOM     22  O   UNL     1      50.381 164.508  40.998  0.00  0.00    -0.506 OA
ATOM     23  H   UNL     1      51.059 164.288  41.676  0.00  0.00    +0.292 HD
ENDBRANCH   6  22
TORSDOF 4
ENDMDL
MODEL 6
REMARK VINA RESULT:    -8.028      1.615      3.027
REMARK INTER + INTRA:          -9.511
REMARK INTER:                  -9.196
REMARK INTRA:                  -0.314
REMARK UNBOUND:                -0.310
REMARK  Name = 
REMARK  4 active torsions:
REMARK  status: ('A' for Active; 'I' for Inactive)
REMARK    1  A    between atoms: C_3  and  O_20
REMARK    2  A    between atoms: C_6  and  C_7
REMARK    3  A    between atoms: C_12  and  O_19
REMARK    4  A    between atoms: C_14  and  O_18
REMARK                            x       y       z     vdW  Elec       q    Type
REMARK                         _______ _______ _______ _____ _____    ______ ____
ROOT
ATOM      1  C   UNL     1      49.852 161.229  41.636  0.00  0.00    +0.139 A 
ATOM      2  C   UNL     1      48.615 160.755  41.845  0.00  0.00    +0.098 A 
ATOM      3  C   UNL     1      48.452 159.377  42.330  0.00  0.00    +0.197 A 
ATOM      4  O   UNL     1      47.345 158.892  42.533  0.00  0.00    -0.287 OA
ATOM      5  C   UNL     1      49.676 158.602  42.564  0.00  0.00    +0.105 A 
ATOM      6  C   UNL     1      49.632 157.281  43.025  0.00  0.00    +0.135 A 
ATOM      7  C   UNL     1      50.812 156.573  43.237  0.00  0.00    +0.091 A 
ATOM      8  C   UNL     1      52.032 157.197  42.986  0.00  0.00    +0.124 A 
ATOM      9  C   UNL     1      52.087 158.510  42.527  0.00  0.00    +0.092 A 
ATOM     10  C   UNL     1      50.902 159.214  42.317  0.00  0.00    +0.146 A 
ATOM     11  O   UNL     1      51.013 160.506  41.865  0.00  0.00    -0.454 OA
ENDROOT
BRANCH   1  17
ATOM     12  C   UNL     1      51.396 163.073  40.974  0.00  0.00    +0.015 A 
ATOM     13  C   UNL     1      51.639 164.371  40.515  0.00  0.00    +0.046 A 
ATOM     14  C   UNL     1      50.566 165.207  40.231  0.00  0.00    +0.117 A 
ATOM     15  C   UNL     1      49.260 164.766  40.397  0.00  0.00    +0.046 A 
ATOM     16  C   UNL     1      49.018 163.469  40.857  0.00  0.00    +0.015 A 
ATOM     17  C   UNL     1      50.084 162.607  41.159  0.00  0.00    +0.018 A 
BRANCH  14  18
ATOM     18  O   UNL     1      50.755 166.479  39.782  0.00  0.00    -0.507 OA
ATOM     19  H   UNL     1      49.890 166.914  39.704  0.00  0.00    +0.292 HD
ENDBRANCH  14  18
ENDBRANCH   1  17
BRANCH   8  20
ATOM     20  O   UNL     1      53.214 156.545  43.179  0.00  0.00    -0.507 OA
ATOM     21  H   UNL     1      53.275 155.810  42.544  0.00  0.00    +0.292 HD
ENDBRANCH   8  20
BRANCH   6  22
ATOM     22  O   UNL     1      48.461 156.622  43.289  0.00  0.00    -0.506 OA
ATOM     23  H   UNL     1      47.986 157.112  43.998  0.00  0.00    +0.292 HD
ENDBRANCH   6  22
TORSDOF 4
ENDMDL
MODEL 7
REMARK VINA RESULT:    -7.676      2.901      5.042
REMARK INTER + INTRA:          -9.108
REMARK INTER:                  -8.794
REMARK INTRA:                  -0.314
REMARK UNBOUND:                -0.310
REMARK  Name = 
REMARK  4 active torsions:
REMARK  status: ('A' for Active; 'I' for Inactive)
REMARK    1  A    between atoms: C_3  and  O_20
REMARK    2  A    between atoms: C_6  and  C_7
REMARK    3  A    between atoms: C_12  and  O_19
REMARK    4  A    between atoms: C_14  and  O_18
REMARK                            x       y       z     vdW  Elec       q    Type
REMARK                         _______ _______ _______ _____ _____    ______ ____
ROOT
ATOM      1  C   UNL     1      52.235 159.057  42.302  0.00  0.00    +0.139 A 
ATOM      2  C   UNL     1      51.108 159.777  42.391  0.00  0.00    +0.098 A 
ATOM      3  C   UNL     1      49.867 159.111  42.812  0.00  0.00    +0.197 A 
ATOM      4  O   UNL     1      48.808 159.721  42.905  0.00  0.00    -0.287 OA
ATOM      5  C   UNL     1      49.948 157.678  43.118  0.00  0.00    +0.105 A 
ATOM      6  C   UNL     1      48.825 156.949  43.526  0.00  0.00    +0.135 A 
ATOM      7  C   UNL     1      48.936 155.590  43.808  0.00  0.00    +0.091 A 
ATOM      8  C   UNL     1      50.177 154.970  43.681  0.00  0.00    +0.124 A 
ATOM      9  C   UNL     1      51.301 155.686  43.277  0.00  0.00    +0.092 A 
ATOM     10  C   UNL     1      51.183 157.046  42.994  0.00  0.00    +0.146 A 
ATOM     11  O   UNL     1      52.321 157.705  42.600  0.00  0.00    -0.454 OA
ENDROOT
BRANCH   1  17
ATOM     12  C   UNL     1      54.647 158.858  41.699  0.00  0.00    +0.015 A 
ATOM     13  C   UNL     1      55.869 159.415  41.307  0.00  0.00    +0.046 A 
ATOM     14  C   UNL     1      55.960 160.786  41.101  0.00  0.00    +0.117 A 
ATOM     15  C   UNL     1      54.853 161.605  41.280  0.00  0.00    +0.046 A 
ATOM     16  C   UNL     1      53.633 161.049  41.673  0.00  0.00    +0.015 A 
ATOM     17  C   UNL     1      53.516 159.667  41.897  0.00  0.00    +0.018 A 
BRANCH  14  18
ATOM     18  O   UNL     1      57.129 161.371  40.718  0.00  0.00    -0.507 OA
ATOM     19  H   UNL     1      57.469 161.901  41.457  0.00  0.00    +0.292 HD
ENDBRANCH  14  18
ENDBRANCH   1  17
BRANCH   8  20
ATOM     20  O   UNL     1      50.336 153.642  43.948  0.00  0.00    -0.507 OA
ATOM     21  H   UNL     1      49.745 153.396  44.681  0.00  0.00    +0.292 HD
ENDBRANCH   8  20
BRANCH   6  22
ATOM     22  O   UNL     1      47.584 157.509  43.668  0.00  0.00    -0.506 OA
ATOM     23  H   UNL     1      47.666 158.479  43.521  0.00  0.00    +0.292 HD
ENDBRANCH   6  22
TORSDOF 4
ENDMDL
MODEL 8
REMARK VINA RESULT:    -7.372      2.459      4.071
REMARK INTER + INTRA:          -8.759
REMARK INTER:                  -8.451
REMARK INTRA:                  -0.308
REMARK UNBOUND:                -0.310
REMARK  Name = 
REMARK  4 active torsions:
REMARK  status: ('A' for Active; 'I' for Inactive)
REMARK    1  A    between atoms: C_3  and  O_20
REMARK    2  A    between atoms: C_6  and  C_7
REMARK    3  A    between atoms: C_12  and  O_19
REMARK    4  A    between atoms: C_14  and  O_18
REMARK                            x       y       z     vdW  Elec       q    Type
REMARK                         _______ _______ _______ _____ _____    ______ ____
ROOT
ATOM      1  C   UNL     1      50.310 162.478  41.228  0.00  0.00    +0.139 A 
ATOM      2  C   UNL     1      48.973 162.428  41.304  0.00  0.00    +0.098 A 
ATOM      3  C   UNL     1      48.331 161.206  41.809  0.00  0.00    +0.197 A 
ATOM      4  O   UNL     1      47.112 161.105  41.894  0.00  0.00    -0.287 OA
ATOM      5  C   UNL     1      49.213 160.105  42.210  0.00  0.00    +0.105 A 
ATOM      6  C   UNL     1      48.705 158.898  42.703  0.00  0.00    +0.135 A 
ATOM      7  C   UNL     1      49.571 157.872  43.074  0.00  0.00    +0.091 A 
ATOM      8  C   UNL     1      50.944 158.065  42.950  0.00  0.00    +0.124 A 
ATOM      9  C   UNL     1      51.461 159.262  42.461  0.00  0.00    +0.092 A 
ATOM     10  C   UNL     1      50.589 160.285  42.090  0.00  0.00    +0.146 A 
ATOM     11  O   UNL     1      51.151 161.444  41.615  0.00  0.00    -0.454 OA
ENDROOT
BRANCH   1  17
ATOM     12  C   UNL     1      50.362 164.922  40.734  0.00  0.00    +0.015 A 
ATOM     13  C   UNL     1      51.015 166.074  40.284  0.00  0.00    +0.046 A 
ATOM     14  C   UNL     1      52.331 165.987  39.846  0.00  0.00    +0.117 A 
ATOM     15  C   UNL     1      53.001 164.770  39.852  0.00  0.00    +0.046 A 
ATOM     16  C   UNL     1      52.348 163.619  40.301  0.00  0.00    +0.015 A 
ATOM     17  C   UNL     1      51.016 163.679  40.740  0.00  0.00    +0.018 A 
BRANCH  14  18
ATOM     18  O   UNL     1      53.006 167.082  39.400  0.00  0.00    -0.507 OA
ATOM     19  H   UNL     1      52.694 167.861  39.889  0.00  0.00    +0.292 HD
ENDBRANCH  14  18
ENDBRANCH   1  17
BRANCH   8  20
ATOM     20  O   UNL     1      51.831 157.090  43.302  0.00  0.00    -0.507 OA
ATOM     21  H   UNL     1      51.410 156.223  43.178  0.00  0.00    +0.292 HD
ENDBRANCH   8  20
BRANCH   6  22
ATOM     22  O   UNL     1      47.365 158.656  42.846  0.00  0.00    -0.506 OA
ATOM     23  H   UNL     1      46.952 158.678  41.952  0.00  0.00    +0.292 HD
ENDBRANCH   6  22
TORSDOF 4
ENDMDL
MODEL 9
REMARK VINA RESULT:    -7.367      1.838      3.668
REMARK INTER + INTRA:          -8.754
REMARK INTER:                  -8.440
REMARK INTRA:                  -0.314
REMARK UNBOUND:                -0.310
REMARK  Name = 
REMARK  4 active torsions:
REMARK  status: ('A' for Active; 'I' for Inactive)
REMARK    1  A    between atoms: C_3  and  O_20
REMARK    2  A    between atoms: C_6  and  C_7
REMARK    3  A    between atoms: C_12  and  O_19
REMARK    4  A    between atoms: C_14  and  O_18
REMARK                            x       y       z     vdW  Elec       q    Type
REMARK                         _______ _______ _______ _____ _____    ______ ____
ROOT
ATOM      1  C   UNL     1      50.275 160.716  41.859  0.00  0.00    +0.139 A 
ATOM      2  C   UNL     1      50.086 159.429  42.182  0.00  0.00    +0.098 A 
ATOM      3  C   UNL     1      51.257 158.566  42.393  0.00  0.00    +0.197 A 
ATOM      4  O   UNL     1      51.141 157.381  42.684  0.00  0.00    -0.287 OA
ATOM      5  C   UNL     1      52.579 159.185  42.241  0.00  0.00    +0.105 A 
ATOM      6  C   UNL     1      53.758 158.452  42.419  0.00  0.00    +0.135 A 
ATOM      7  C   UNL     1      54.997 159.070  42.267  0.00  0.00    +0.091 A 
ATOM      8  C   UNL     1      55.045 160.422  41.938  0.00  0.00    +0.124 A 
ATOM      9  C   UNL     1      53.878 161.161  41.759  0.00  0.00    +0.092 A 
ATOM     10  C   UNL     1      52.641 160.537  41.912  0.00  0.00    +0.146 A 
ATOM     11  O   UNL     1      51.522 161.310  41.724  0.00  0.00    -0.454 OA
ENDROOT
BRANCH   1  17
ATOM     12  C   UNL     1      49.383 162.998  41.394  0.00  0.00    +0.015 A 
ATOM     13  C   UNL     1      48.325 163.887  41.179  0.00  0.00    +0.046 A 
ATOM     14  C   UNL     1      47.019 163.413  41.205  0.00  0.00    +0.117 A 
ATOM     15  C   UNL     1      46.756 162.069  41.440  0.00  0.00    +0.046 A 
ATOM     16  C   UNL     1      47.814 161.182  41.656  0.00  0.00    +0.015 A 
ATOM     17  C   UNL     1      49.142 161.637  41.644  0.00  0.00    +0.018 A 
BRANCH  14  18
ATOM     18  O   UNL     1      45.957 164.241  41.001  0.00  0.00    -0.507 OA
ATOM     19  H   UNL     1      45.818 164.339  40.045  0.00  0.00    +0.292 HD
ENDBRANCH  14  18
ENDBRANCH   1  17
BRANCH   8  20
ATOM     20  O   UNL     1      56.234 161.071  41.780  0.00  0.00    -0.507 OA
ATOM     21  H   UNL     1      56.947 160.411  41.725  0.00  0.00    +0.292 HD
ENDBRANCH   8  20
BRANCH   6  22
ATOM     22  O   UNL     1      53.768 157.122  42.744  0.00  0.00    -0.506 OA
ATOM     23  H   UNL     1      54.694 156.864  42.954  0.00  0.00    +0.292 HD
ENDBRANCH   6  22
TORSDOF 4
ENDMDL
