MODEL 1
REMARK VINA RESULT:    -8.591      0.000      0.000
REMARK INTER + INTRA:         -10.150
REMARK INTER:                  -9.847
REMARK INTRA:                  -0.303
REMARK UNBOUND:                -0.303
REMARK  Name = 
REMARK  4 active torsions:
REMARK  status: ('A' for Active; 'I' for Inactive)
REMARK    1  A    between atoms: C_4  and  C_7
REMARK    2  A    between atoms: C_15  and  O_20
REMARK    3  A    between atoms: C_16  and  O_19
REMARK    4  A    between atoms: C_17  and  O_18
REMARK                            x       y       z     vdW  Elec       q    Type
REMARK                         _______ _______ _______ _____ _____    ______ ____
ROOT
ATOM      1  C   UNL     1      49.656 160.109  41.960  0.00  0.00    +0.139 A 
ATOM      2  C   UNL     1      50.989 160.208  42.061  0.00  0.00    +0.098 A 
ATOM      3  C   UNL     1      51.771 159.006  42.383  0.00  0.00    +0.197 A 
ATOM      4  O   UNL     1      52.992 159.046  42.481  0.00  0.00    -0.287 OA
ATOM      5  C   UNL     1      51.028 157.754  42.579  0.00  0.00    +0.109 A 
ATOM      6  C   UNL     1      49.637 157.790  42.453  0.00  0.00    +0.146 A 
ATOM      7  O   UNL     1      48.943 158.938  42.158  0.00  0.00    -0.454 OA
ATOM      8  C   UNL     1      48.878 156.630  42.628  0.00  0.00    +0.096 A 
ATOM      9  C   UNL     1      49.529 155.439  42.930  0.00  0.00    +0.166 A 
ATOM     10  C   UNL     1      50.920 155.399  43.058  0.00  0.00    +0.202 A 
ATOM     11  C   UNL     1      51.681 156.554  42.884  0.00  0.00    +0.177 A 
ENDROOT
BRANCH   1  15
ATOM     12  C   UNL     1      47.252 163.547  41.074  0.00  0.00    +0.000 A 
ATOM     13  C   UNL     1      48.642 163.633  41.040  0.00  0.00    +0.001 A 
ATOM     14  C   UNL     1      49.419 162.510  41.329  0.00  0.00    +0.011 A 
ATOM     15  C   UNL     1      48.818 161.282  41.648  0.00  0.00    +0.017 A 
ATOM     16  C   UNL     1      47.417 161.214  41.688  0.00  0.00    +0.011 A 
ATOM     17  C   UNL     1      46.639 162.339  41.399  0.00  0.00    +0.001 A 
ENDBRANCH   1  15
BRANCH  11  18
ATOM     18  O   UNL     1      53.042 156.472  43.018  0.00  0.00    -0.503 OA
ATOM     19  H   UNL     1      53.383 157.345  43.312  0.00  0.00    +0.292 HD
ENDBRANCH  11  18
BRANCH  10  20
ATOM     20  O   UNL     1      51.519 154.206  43.356  0.00  0.00    -0.501 OA
ATOM     21  H   UNL     1      51.045 153.540  42.824  0.00  0.00    +0.292 HD
ENDBRANCH  10  20
BRANCH   9  22
ATOM     22  O   UNL     1      48.841 154.270  43.111  0.00  0.00    -0.503 OA
ATOM     23  H   UNL     1      47.944 154.375  42.750  0.00  0.00    +0.292 HD
ENDBRANCH   9  22
TORSDOF 4
ENDMDL
MODEL 2
REMARK VINA RESULT:    -8.406      2.104      2.996
REMARK INTER + INTRA:          -9.938
REMARK INTER:                  -9.681
REMARK INTRA:                  -0.257
REMARK UNBOUND:                -0.303
REMARK  Name = 
REMARK  4 active torsions:
REMARK  status: ('A' for Active; 'I' for Inactive)
REMARK    1  A    between atoms: C_4  and  C_7
REMARK    2  A    between atoms: C_15  and  O_20
REMARK    3  A    between atoms: C_16  and  O_19
REMARK    4  A    between atoms: C_17  and  O_18
REMARK                            x       y       z     vdW  Elec       q    Type
REMARK                         _______ _______ _______ _____ _____    ______ ____
ROOT
ATOM      1  C   UNL     1      49.302 158.624  42.583  0.00  0.00    +0.139 A 
ATOM      2  C   UNL     1      49.791 157.680  41.765  0.00  0.00    +0.098 A 
ATOM      3  C   UNL     1      50.019 156.328  42.293  0.00  0.00    +0.197 A 
ATOM      4  O   UNL     1      50.460 155.432  41.582  0.00  0.00    -0.287 OA
ATOM      5  C   UNL     1      49.694 156.094  43.706  0.00  0.00    +0.109 A 
ATOM      6  C   UNL     1      49.198 157.166  44.451  0.00  0.00    +0.146 A 
ATOM      7  O   UNL     1      49.006 158.419  43.921  0.00  0.00    -0.454 OA
ATOM      8  C   UNL     1      48.869 157.004  45.800  0.00  0.00    +0.096 A 
ATOM      9  C   UNL     1      49.046 155.756  46.388  0.00  0.00    +0.166 A 
ATOM     10  C   UNL     1      49.543 154.681  45.647  0.00  0.00    +0.202 A 
ATOM     11  C   UNL     1      49.870 154.840  44.302  0.00  0.00    +0.177 A 
ENDROOT
BRANCH   1  15
ATOM     12  C   UNL     1      48.562 162.613  41.197  0.00  0.00    +0.000 A 
ATOM     13  C   UNL     1      47.499 161.761  41.488  0.00  0.00    +0.001 A 
ATOM     14  C   UNL     1      47.746 160.463  41.940  0.00  0.00    +0.011 A 
ATOM     15  C   UNL     1      49.060 160.001  42.114  0.00  0.00    +0.017 A 
ATOM     16  C   UNL     1      50.120 160.867  41.806  0.00  0.00    +0.011 A 
ATOM     17  C   UNL     1      49.872 162.166  41.353  0.00  0.00    +0.001 A 
ENDBRANCH   1  15
BRANCH  11  18
ATOM     18  O   UNL     1      50.354 153.761  43.610  0.00  0.00    -0.503 OA
ATOM     19  H   UNL     1      50.824 154.083  42.810  0.00  0.00    +0.292 HD
ENDBRANCH  11  18
BRANCH  10  20
ATOM     20  O   UNL     1      49.700 153.471  46.266  0.00  0.00    -0.501 OA
ATOM     21  H   UNL     1      48.866 153.320  46.750  0.00  0.00    +0.292 HD
ENDBRANCH  10  20
BRANCH   9  22
ATOM     22  O   UNL     1      48.742 155.533  47.704  0.00  0.00    -0.503 OA
ATOM     23  H   UNL     1      49.154 156.231  48.243  0.00  0.00    +0.292 HD
ENDBRANCH   9  22
TORSDOF 4
ENDMDL
MODEL 3
REMARK VINA RESULT:    -8.268      1.387      3.161
REMARK INTER + INTRA:          -9.779
REMARK INTER:                  -9.476
REMARK INTRA:                  -0.303
REMARK UNBOUND:                -0.303
REMARK  Name = 
REMARK  4 active torsions:
REMARK  status: ('A' for Active; 'I' for Inactive)
REMARK    1  A    between atoms: C_4  and  C_7
REMARK    2  A    between atoms: C_15  and  O_20
REMARK    3  A    between atoms: C_16  and  O_19
REMARK    4  A    between atoms: C_17  and  O_18
REMARK                            x       y       z     vdW  Elec       q    Type
REMARK                         _______ _______ _______ _____ _____    ______ ____
ROOT
ATOM      1  C   UNL     1      49.001 160.668  41.972  0.00  0.00    +0.139 A 
ATOM      2  C   UNL     1      48.300 159.586  42.340  0.00  0.00    +0.098 A 
ATOM      3  C   UNL     1      49.021 158.362  42.713  0.00  0.00    +0.197 A 
ATOM      4  O   UNL     1      48.423 157.350  43.061  0.00  0.00    -0.287 OA
ATOM      5  C   UNL     1      50.488 158.402  42.656  0.00  0.00    +0.109 A 
ATOM      6  C   UNL     1      51.097 159.592  42.248  0.00  0.00    +0.146 A 
ATOM      7  O   UNL     1      50.384 160.714  41.899  0.00  0.00    -0.454 OA
ATOM      8  C   UNL     1      52.488 159.691  42.175  0.00  0.00    +0.096 A 
ATOM      9  C   UNL     1      53.259 158.584  42.516  0.00  0.00    +0.166 A 
ATOM     10  C   UNL     1      52.655 157.392  42.923  0.00  0.00    +0.202 A 
ATOM     11  C   UNL     1      51.267 157.290  42.997  0.00  0.00    +0.177 A 
ENDROOT
BRANCH   1  15
ATOM     12  C   UNL     1      47.020 164.290  40.814  0.00  0.00    +0.000 A 
ATOM     13  C   UNL     1      46.300 163.250  41.396  0.00  0.00    +0.001 A 
ATOM     14  C   UNL     1      46.951 162.073  41.772  0.00  0.00    +0.011 A 
ATOM     15  C   UNL     1      48.333 161.922  41.578  0.00  0.00    +0.017 A 
ATOM     16  C   UNL     1      49.043 162.975  40.981  0.00  0.00    +0.011 A 
ATOM     17  C   UNL     1      48.391 164.153  40.604  0.00  0.00    +0.001 A 
ENDBRANCH   1  15
BRANCH  11  18
ATOM     18  O   UNL     1      50.714 156.104  43.402  0.00  0.00    -0.503 OA
ATOM     19  H   UNL     1      50.212 155.717  42.652  0.00  0.00    +0.292 HD
ENDBRANCH  11  18
BRANCH  10  20
ATOM     20  O   UNL     1      53.452 156.328  43.249  0.00  0.00    -0.501 OA
ATOM     21  H   UNL     1      54.117 156.685  43.868  0.00  0.00    +0.292 HD
ENDBRANCH  10  20
BRANCH   9  22
ATOM     22  O   UNL     1      54.626 158.618  42.466  0.00  0.00    -0.503 OA
ATOM     23  H   UNL     1      54.976 157.834  42.924  0.00  0.00    +0.292 HD
ENDBRANCH   9  22
TORSDOF 4
ENDMDL
MODEL 4
REMARK VINA RESULT:    -8.054      2.835      6.758
REMARK INTER + INTRA:          -9.534
REMARK INTER:                  -9.277
REMARK INTRA:                  -0.257
REMARK UNBOUND:                -0.303
REMARK  Name = 
REMARK  4 active torsions:
REMARK  status: ('A' for Active; 'I' for Inactive)
REMARK    1  A    between atoms: C_4  and  C_7
REMARK    2  A    between atoms: C_15  and  O_20
REMARK    3  A    between atoms: C_16  and  O_19
REMARK    4  A    between atoms: C_17  and  O_18
REMARK                            x       y       z     vdW  Elec       q    Type
REMARK                         _______ _______ _______ _____ _____    ______ ____
ROOT
ATOM      1  C   UNL     1      49.422 159.690  42.247  0.00  0.00    +0.139 A 
ATOM      2  C   UNL     1      50.582 160.311  41.987  0.00  0.00    +0.098 A 
ATOM      3  C   UNL     1      50.557 161.712  41.546  0.00  0.00    +0.197 A 
ATOM      4  O   UNL     1      51.592 162.323  41.302  0.00  0.00    -0.287 OA
ATOM      5  C   UNL     1      49.242 162.352  41.413  0.00  0.00    +0.109 A 
ATOM      6  C   UNL     1      48.109 161.590  41.707  0.00  0.00    +0.146 A 
ATOM      7  O   UNL     1      48.175 160.278  42.110  0.00  0.00    -0.454 OA
ATOM      8  C   UNL     1      46.831 162.144  41.599  0.00  0.00    +0.096 A 
ATOM      9  C   UNL     1      46.706 163.469  41.194  0.00  0.00    +0.166 A 
ATOM     10  C   UNL     1      47.836 164.234  40.898  0.00  0.00    +0.202 A 
ATOM     11  C   UNL     1      49.112 163.685  41.004  0.00  0.00    +0.177 A 
ENDROOT
BRANCH   1  15
ATOM     12  C   UNL     1      49.293 155.584  43.473  0.00  0.00    +0.000 A 
ATOM     13  C   UNL     1      49.657 155.918  42.171  0.00  0.00    +0.001 A 
ATOM     14  C   UNL     1      49.698 157.257  41.778  0.00  0.00    +0.011 A 
ATOM     15  C   UNL     1      49.383 158.282  42.684  0.00  0.00    +0.017 A 
ATOM     16  C   UNL     1      49.008 157.929  43.989  0.00  0.00    +0.011 A 
ATOM     17  C   UNL     1      48.967 156.588  44.382  0.00  0.00    +0.001 A 
ENDBRANCH   1  15
BRANCH  11  18
ATOM     18  O   UNL     1      50.195 164.469  40.705  0.00  0.00    -0.503 OA
ATOM     19  H   UNL     1      50.107 165.323  41.181  0.00  0.00    +0.292 HD
ENDBRANCH  11  18
BRANCH  10  20
ATOM     20  O   UNL     1      47.666 165.534  40.502  0.00  0.00    -0.501 OA
ATOM     21  H   UNL     1      46.709 165.629  40.339  0.00  0.00    +0.292 HD
ENDBRANCH  10  20
BRANCH   9  22
ATOM     22  O   UNL     1      45.482 164.069  41.070  0.00  0.00    -0.503 OA
ATOM     23  H   UNL     1      45.240 164.467  41.925  0.00  0.00    +0.292 HD
ENDBRANCH   9  22
TORSDOF 4
ENDMDL
MODEL 5
REMARK VINA RESULT:    -8.003      1.506      3.112
REMARK INTER + INTRA:          -9.475
REMARK INTER:                  -9.171
REMARK INTRA:                  -0.305
REMARK UNBOUND:                -0.303
REMARK  Name = 
REMARK  4 active torsions:
REMARK  status: ('A' for Active; 'I' for Inactive)
REMARK    1  A    between atoms: C_4  and  C_7
REMARK    2  A    between atoms: C_15  and  O_20
REMARK    3  A    between atoms: C_16  and  O_19
REMARK    4  A    between atoms: C_17  and  O_18
REMARK                            x       y       z     vdW  Elec       q    Type
REMARK                         _______ _______ _______ _____ _____    ______ ____
ROOT
ATOM      1  C   UNL     1      49.721 161.318  41.644  0.00  0.00    +0.139 A 
ATOM      2  C   UNL     1      48.501 160.793  41.827  0.00  0.00    +0.098 A 
ATOM      3  C   UNL     1      48.385 159.401  42.284  0.00  0.00    +0.197 A 
ATOM      4  O   UNL     1      47.291 158.880  42.470  0.00  0.00    -0.287 OA
ATOM      5  C   UNL     1      49.633 158.663  42.512  0.00  0.00    +0.109 A 
ATOM      6  C   UNL     1      50.840 159.325  42.275  0.00  0.00    +0.146 A 
ATOM      7  O   UNL     1      50.905 160.626  41.840  0.00  0.00    -0.454 OA
ATOM      8  C   UNL     1      52.060 158.674  42.476  0.00  0.00    +0.096 A 
ATOM      9  C   UNL     1      52.053 157.355  42.915  0.00  0.00    +0.166 A 
ATOM     10  C   UNL     1      50.849 156.687  43.151  0.00  0.00    +0.202 A 
ATOM     11  C   UNL     1      49.630 157.334  42.953  0.00  0.00    +0.177 A 
ENDROOT
BRANCH   1  15
ATOM     12  C   UNL     1      50.283 165.355  40.314  0.00  0.00    +0.000 A 
ATOM     13  C   UNL     1      51.382 164.546  40.589  0.00  0.00    +0.001 A 
ATOM     14  C   UNL     1      51.193 163.231  41.021  0.00  0.00    +0.011 A 
ATOM     15  C   UNL     1      49.901 162.706  41.177  0.00  0.00    +0.017 A 
ATOM     16  C   UNL     1      48.803 163.537  40.906  0.00  0.00    +0.011 A 
ATOM     17  C   UNL     1      48.993 164.852  40.474  0.00  0.00    +0.001 A 
ENDBRANCH   1  15
BRANCH  11  18
ATOM     18  O   UNL     1      48.471 156.645  43.196  0.00  0.00    -0.503 OA
ATOM     19  H   UNL     1      47.709 157.213  42.950  0.00  0.00    +0.292 HD
ENDBRANCH  11  18
BRANCH  10  20
ATOM     20  O   UNL     1      50.888 155.389  43.582  0.00  0.00    -0.501 OA
ATOM     21  H   UNL     1      50.740 154.849  42.783  0.00  0.00    +0.292 HD
ENDBRANCH  10  20
BRANCH   9  22
ATOM     22  O   UNL     1      53.214 156.663  43.131  0.00  0.00    -0.503 OA
ATOM     23  H   UNL     1      53.100 155.751  42.809  0.00  0.00    +0.292 HD
ENDBRANCH   9  22
TORSDOF 4
ENDMDL
MODEL 6
REMARK VINA RESULT:    -7.975      2.917      7.134
REMARK INTER + INTRA:          -9.443
REMARK INTER:                  -9.177
REMARK INTRA:                  -0.266
REMARK UNBOUND:                -0.303
REMARK  Name = 
REMARK  4 active torsions:
REMARK  status: ('A' for Active; 'I' for Inactive)
REMARK    1  A    between atoms: C_4  and  C_7
REMARK    2  A    between atoms: C_15  and  O_20
REMARK    3  A    between atoms: C_16  and  O_19
REMARK    4  A    between atoms: C_17  and  O_18
REMARK                            x       y       z     vdW  Elec       q    Type
REMARK                         _______ _______ _______ _____ _____    ______ ____
ROOT
ATOM      1  C   UNL     1      48.944 159.871  41.933  0.00  0.00    +0.139 A 
ATOM      2  C   UNL     1      47.730 160.330  41.598  0.00  0.00    +0.098 A 
ATOM      3  C   UNL     1      47.597 161.714  41.123  0.00  0.00    +0.197 A 
ATOM      4  O   UNL     1      46.509 162.176  40.800  0.00  0.00    -0.287 OA
ATOM      5  C   UNL     1      48.823 162.519  41.046  0.00  0.00    +0.109 A 
ATOM      6  C   UNL     1      50.026 161.922  41.433  0.00  0.00    +0.146 A 
ATOM      7  O   UNL     1      50.106 160.625  41.880  0.00  0.00    -0.454 OA
ATOM      8  C   UNL     1      51.225 162.637  41.381  0.00  0.00    +0.096 A 
ATOM      9  C   UNL     1      51.201 163.955  40.938  0.00  0.00    +0.166 A 
ATOM     10  C   UNL     1      50.002 164.557  40.551  0.00  0.00    +0.202 A 
ATOM     11  C   UNL     1      48.804 163.846  40.601  0.00  0.00    +0.177 A 
ENDROOT
BRANCH   1  15
ATOM     12  C   UNL     1      49.514 155.855  43.321  0.00  0.00    +0.000 A 
ATOM     13  C   UNL     1      50.154 156.297  42.166  0.00  0.00    +0.001 A 
ATOM     14  C   UNL     1      49.965 157.607  41.720  0.00  0.00    +0.011 A 
ATOM     15  C   UNL     1      49.139 158.495  42.426  0.00  0.00    +0.017 A 
ATOM     16  C   UNL     1      48.492 158.031  43.582  0.00  0.00    +0.011 A 
ATOM     17  C   UNL     1      48.682 156.720  44.028  0.00  0.00    +0.001 A 
ENDBRANCH   1  15
BRANCH  11  18
ATOM     18  O   UNL     1      47.649 164.472  40.212  0.00  0.00    -0.503 OA
ATOM     19  H   UNL     1      47.419 164.176  39.305  0.00  0.00    +0.292 HD
ENDBRANCH  11  18
BRANCH  10  20
ATOM     20  O   UNL     1      50.025 165.856  40.121  0.00  0.00    -0.501 OA
ATOM     21  H   UNL     1      49.101 166.065  39.883  0.00  0.00    +0.292 HD
ENDBRANCH  10  20
BRANCH   9  22
ATOM     22  O   UNL     1      52.342 164.708  40.863  0.00  0.00    -0.503 OA
ATOM     23  H   UNL     1      52.100 165.649  40.918  0.00  0.00    +0.292 HD
ENDBRANCH   9  22
TORSDOF 4
ENDMDL
MODEL 7
REMARK VINA RESULT:    -7.778      1.064      1.358
REMARK INTER + INTRA:          -9.218
REMARK INTER:                  -8.917
REMARK INTRA:                  -0.301
REMARK UNBOUND:                -0.303
REMARK  Name = 
REMARK  4 active torsions:
REMARK  status: ('A' for Active; 'I' for Inactive)
REMARK    1  A    between atoms: C_4  and  C_7
REMARK    2  A    between atoms: C_15  and  O_20
REMARK    3  A    between atoms: C_16  and  O_19
REMARK    4  A    between atoms: C_17  and  O_18
REMARK                            x       y       z     vdW  Elec       q    Type
REMARK                         _______ _______ _______ _____ _____    ______ ____
ROOT
ATOM      1  C   UNL     1      49.726 161.363  41.586  0.00  0.00    +0.139 A 
ATOM      2  C   UNL     1      51.040 161.557  41.766  0.00  0.00    +0.098 A 
ATOM      3  C   UNL     1      51.893 160.404  42.086  0.00  0.00    +0.197 A 
ATOM      4  O   UNL     1      53.101 160.531  42.255  0.00  0.00    -0.287 OA
ATOM      5  C   UNL     1      51.240 159.093  42.192  0.00  0.00    +0.109 A 
ATOM      6  C   UNL     1      49.859 159.029  41.989  0.00  0.00    +0.146 A 
ATOM      7  O   UNL     1      49.095 160.134  41.698  0.00  0.00    -0.454 OA
ATOM      8  C   UNL     1      49.182 157.810  42.075  0.00  0.00    +0.096 A 
ATOM      9  C   UNL     1      49.906 156.660  42.368  0.00  0.00    +0.166 A 
ATOM     10  C   UNL     1      51.287 156.718  42.574  0.00  0.00    +0.202 A 
ATOM     11  C   UNL     1      51.965 157.933  42.488  0.00  0.00    +0.177 A 
ENDROOT
BRANCH   1  15
ATOM     12  C   UNL     1      47.117 164.646  40.691  0.00  0.00    +0.000 A 
ATOM     13  C   UNL     1      48.499 164.800  40.600  0.00  0.00    +0.001 A 
ATOM     14  C   UNL     1      49.343 163.727  40.892  0.00  0.00    +0.011 A 
ATOM     15  C   UNL     1      48.817 162.482  41.272  0.00  0.00    +0.017 A 
ATOM     16  C   UNL     1      47.424 162.345  41.368  0.00  0.00    +0.011 A 
ATOM     17  C   UNL     1      46.580 163.420  41.076  0.00  0.00    +0.001 A 
ENDBRANCH   1  15
BRANCH  11  18
ATOM     18  O   UNL     1      53.319 157.948  42.696  0.00  0.00    -0.503 OA
ATOM     19  H   UNL     1      53.664 157.033  42.600  0.00  0.00    +0.292 HD
ENDBRANCH  11  18
BRANCH  10  20
ATOM     20  O   UNL     1      51.960 155.562  42.860  0.00  0.00    -0.501 OA
ATOM     21  H   UNL     1      51.658 155.302  43.751  0.00  0.00    +0.292 HD
ENDBRANCH  10  20
BRANCH   9  22
ATOM     22  O   UNL     1      49.302 155.436  42.466  0.00  0.00    -0.503 OA
ATOM     23  H   UNL     1      49.143 155.092  41.569  0.00  0.00    +0.292 HD
ENDBRANCH   9  22
TORSDOF 4
ENDMDL
MODEL 8
REMARK VINA RESULT:    -7.628      1.992      3.983
REMARK INTER + INTRA:          -9.046
REMARK INTER:                  -8.790
REMARK INTRA:                  -0.256
REMARK UNBOUND:                -0.303
REMARK  Name = 
REMARK  4 active torsions:
REMARK  status: ('A' for Active; 'I' for Inactive)
REMARK    1  A    between atoms: C_4  and  C_7
REMARK    2  A    between atoms: C_15  and  O_20
REMARK    3  A    between atoms: C_16  and  O_19
REMARK    4  A    between atoms: C_17  and  O_18
REMARK                            x       y       z     vdW  Elec       q    Type
REMARK                         _______ _______ _______ _____ _____    ______ ____
ROOT
ATOM      1  C   UNL     1      50.077 160.240  42.031  0.00  0.00    +0.139 A 
ATOM      2  C   UNL     1      49.968 158.946  42.366  0.00  0.00    +0.098 A 
ATOM      3  C   UNL     1      51.190 158.145  42.520  0.00  0.00    +0.197 A 
ATOM      4  O   UNL     1      51.141 156.960  42.830  0.00  0.00    -0.287 OA
ATOM      5  C   UNL     1      52.472 158.824  42.292  0.00  0.00    +0.109 A 
ATOM      6  C   UNL     1      52.446 160.175  41.939  0.00  0.00    +0.146 A 
ATOM      7  O   UNL     1      51.280 160.887  41.798  0.00  0.00    -0.454 OA
ATOM      8  C   UNL     1      53.634 160.874  41.711  0.00  0.00    +0.096 A 
ATOM      9  C   UNL     1      54.844 160.201  41.839  0.00  0.00    +0.166 A 
ATOM     10  C   UNL     1      54.876 158.849  42.189  0.00  0.00    +0.202 A 
ATOM     11  C   UNL     1      53.692 158.150  42.419  0.00  0.00    +0.177 A 
ENDROOT
BRANCH   1  15
ATOM     12  C   UNL     1      46.632 162.731  41.469  0.00  0.00    +0.000 A 
ATOM     13  C   UNL     1      47.214 162.079  40.384  0.00  0.00    +0.001 A 
ATOM     14  C   UNL     1      48.335 161.269  40.574  0.00  0.00    +0.011 A 
ATOM     15  C   UNL     1      48.887 161.093  41.853  0.00  0.00    +0.017 A 
ATOM     16  C   UNL     1      48.296 161.764  42.934  0.00  0.00    +0.011 A 
ATOM     17  C   UNL     1      47.174 162.575  42.743  0.00  0.00    +0.001 A 
ENDBRANCH   1  15
BRANCH  11  18
ATOM     18  O   UNL     1      53.766 156.825  42.761  0.00  0.00    -0.503 OA
ATOM     19  H   UNL     1      54.570 156.684  43.307  0.00  0.00    +0.292 HD
ENDBRANCH  11  18
BRANCH  10  20
ATOM     20  O   UNL     1      56.089 158.227  42.304  0.00  0.00    -0.501 OA
ATOM     21  H   UNL     1      55.894 157.354  42.696  0.00  0.00    +0.292 HD
ENDBRANCH  10  20
BRANCH   9  22
ATOM     22  O   UNL     1      56.041 160.830  41.629  0.00  0.00    -0.503 OA
ATOM     23  H   UNL     1      55.915 161.789  41.738  0.00  0.00    +0.292 HD
ENDBRANCH   9  22
TORSDOF 4
ENDMDL
MODEL 9
REMARK VINA RESULT:    -7.260      2.367      4.160
REMARK INTER + INTRA:          -8.624
REMARK INTER:                  -8.322
REMARK INTRA:                  -0.302
REMARK UNBOUND:                -0.303
REMARK  Name = 
REMARK  4 active torsions:
REMARK  status: ('A' for Active; 'I' for Inactive)
REMARK    1  A    between atoms: C_4  and  C_7
REMARK    2  A    between atoms: C_15  and  O_20
REMARK    3  A    between atoms: C_16  and  O_19
REMARK    4  A    between atoms: C_17  and  O_18
REMARK                            x       y       z     vdW  Elec       q    Type
REMARK                         _______ _______ _______ _____ _____    ______ ____
ROOT
ATOM      1  C   UNL     1      50.650 162.177  41.400  0.00  0.00    +0.139 A 
ATOM      2  C   UNL     1      49.315 162.259  41.490  0.00  0.00    +0.098 A 
ATOM      3  C   UNL     1      48.559 161.093  41.968  0.00  0.00    +0.197 A 
ATOM      4  O   UNL     1      47.337 161.123  42.072  0.00  0.00    -0.287 OA
ATOM      5  C   UNL     1      49.327 159.892  42.318  0.00  0.00    +0.109 A 
ATOM      6  C   UNL     1      50.716 159.934  42.170  0.00  0.00    +0.146 A 
ATOM      7  O   UNL     1      51.384 161.044  41.712  0.00  0.00    -0.454 OA
ATOM      8  C   UNL     1      51.500 158.822  42.488  0.00  0.00    +0.096 A 
ATOM      9  C   UNL     1      50.874 157.671  42.954  0.00  0.00    +0.166 A 
ATOM     10  C   UNL     1      49.486 157.623  43.103  0.00  0.00    +0.202 A 
ATOM     11  C   UNL     1      48.701 158.731  42.787  0.00  0.00    +0.177 A 
ENDROOT
BRANCH   1  15
ATOM     12  C   UNL     1      52.971 165.490  39.981  0.00  0.00    +0.000 A 
ATOM     13  C   UNL     1      51.634 165.666  40.328  0.00  0.00    +0.001 A 
ATOM     14  C   UNL     1      50.883 164.583  40.790  0.00  0.00    +0.011 A 
ATOM     15  C   UNL     1      51.461 163.310  40.919  0.00  0.00    +0.017 A 
ATOM     16  C   UNL     1      52.806 163.147  40.555  0.00  0.00    +0.011 A 
ATOM     17  C   UNL     1      53.557 164.231  40.092  0.00  0.00    +0.001 A 
ENDBRANCH   1  15
BRANCH  11  18
ATOM     18  O   UNL     1      47.343 158.643  42.947  0.00  0.00    -0.503 OA
ATOM     19  H   UNL     1      47.097 159.072  43.795  0.00  0.00    +0.292 HD
ENDBRANCH  11  18
BRANCH  10  20
ATOM     20  O   UNL     1      48.912 156.470  43.565  0.00  0.00    -0.501 OA
ATOM     21  H   UNL     1      48.578 156.688  44.456  0.00  0.00    +0.292 HD
ENDBRANCH  10  20
BRANCH   9  22
ATOM     22  O   UNL     1      51.587 156.550  43.284  0.00  0.00    -0.503 OA
ATOM     23  H   UNL     1      50.976 155.793  43.329  0.00  0.00    +0.292 HD
ENDBRANCH   9  22
TORSDOF 4
ENDMDL
