MODEL 1
REMARK VINA RESULT:    -8.484      0.000      0.000
REMARK INTER + INTRA:          -9.777
REMARK INTER:                  -9.476
REMARK INTRA:                  -0.301
REMARK UNBOUND:                -0.301
REMARK  Name = 
REMARK  3 active torsions:
REMARK  status: ('A' for Active; 'I' for Inactive)
REMARK    1  A    between atoms: C_4  and  C_7
REMARK    2  A    between atoms: C_12  and  O_19
REMARK    3  A    between atoms: C_14  and  O_18
REMARK                            x       y       z     vdW  Elec       q    Type
REMARK                         _______ _______ _______ _____ _____    ______ ____
ROOT
ATOM      1  C   UNL     1      49.673 160.104  41.906  0.00  0.00    +0.139 A 
ATOM      2  C   UNL     1      51.002 160.226  42.047  0.00  0.00    +0.098 A 
ATOM      3  C   UNL     1      51.791 159.040  42.406  0.00  0.00    +0.197 A 
ATOM      4  O   UNL     1      53.008 159.094  42.541  0.00  0.00    -0.287 OA
ATOM      5  C   UNL     1      51.060 157.782  42.597  0.00  0.00    +0.105 A 
ATOM      6  C   UNL     1      51.716 156.595  42.940  0.00  0.00    +0.135 A 
ATOM      7  C   UNL     1      50.992 155.418  43.114  0.00  0.00    +0.091 A 
ATOM      8  C   UNL     1      49.609 155.441  42.943  0.00  0.00    +0.124 A 
ATOM      9  C   UNL     1      48.946 156.616  42.603  0.00  0.00    +0.092 A 
ATOM     10  C   UNL     1      49.677 157.791  42.429  0.00  0.00    +0.146 A 
ATOM     11  O   UNL     1      48.974 158.921  42.095  0.00  0.00    -0.454 OA
ENDROOT
BRANCH   1  15
ATOM     12  C   UNL     1      47.234 163.487  40.904  0.00  0.00    +0.000 A 
ATOM     13  C   UNL     1      48.621 163.568  40.813  0.00  0.00    +0.001 A 
ATOM     14  C   UNL     1      49.410 162.462  41.140  0.00  0.00    +0.011 A 
ATOM     15  C   UNL     1      48.822 161.259  41.557  0.00  0.00    +0.017 A 
ATOM     16  C   UNL     1      47.423 161.196  41.653  0.00  0.00    +0.011 A 
ATOM     17  C   UNL     1      46.634 162.302  41.327  0.00  0.00    +0.001 A 
ENDBRANCH   1  15
BRANCH   8  18
ATOM     18  O   UNL     1      48.859 154.314  43.105  0.00  0.00    -0.507 OA
ATOM     19  H   UNL     1      49.431 153.536  42.993  0.00  0.00    +0.292 HD
ENDBRANCH   8  18
BRANCH   6  20
ATOM     20  O   UNL     1      53.071 156.517  43.119  0.00  0.00    -0.506 OA
ATOM     21  H   UNL     1      53.258 156.610  44.082  0.00  0.00    +0.292 HD
ENDBRANCH   6  20
TORSDOF 3
ENDMDL
MODEL 2
REMARK VINA RESULT:    -8.381      2.038      2.982
REMARK INTER + INTRA:          -9.663
REMARK INTER:                  -9.405
REMARK INTRA:                  -0.258
REMARK UNBOUND:                -0.301
REMARK  Name = 
REMARK  3 active torsions:
REMARK  status: ('A' for Active; 'I' for Inactive)
REMARK    1  A    between atoms: C_4  and  C_7
REMARK    2  A    between atoms: C_12  and  O_19
REMARK    3  A    between atoms: C_14  and  O_18
REMARK                            x       y       z     vdW  Elec       q    Type
REMARK                         _______ _______ _______ _____ _____    ______ ____
ROOT
ATOM      1  C   UNL     1      49.288 158.619  42.587  0.00  0.00    +0.139 A 
ATOM      2  C   UNL     1      49.789 157.680  41.770  0.00  0.00    +0.098 A 
ATOM      3  C   UNL     1      50.022 156.329  42.296  0.00  0.00    +0.197 A 
ATOM      4  O   UNL     1      50.472 155.432  41.591  0.00  0.00    -0.287 OA
ATOM      5  C   UNL     1      49.691 156.093  43.706  0.00  0.00    +0.105 A 
ATOM      6  C   UNL     1      49.875 154.843  44.305  0.00  0.00    +0.135 A 
ATOM      7  C   UNL     1      49.551 154.653  45.647  0.00  0.00    +0.091 A 
ATOM      8  C   UNL     1      49.045 155.724  46.380  0.00  0.00    +0.124 A 
ATOM      9  C   UNL     1      48.859 156.973  45.795  0.00  0.00    +0.092 A 
ATOM     10  C   UNL     1      49.184 157.156  44.451  0.00  0.00    +0.146 A 
ATOM     11  O   UNL     1      48.983 158.406  43.923  0.00  0.00    -0.454 OA
ENDROOT
BRANCH   1  15
ATOM     12  C   UNL     1      48.528 162.613  41.222  0.00  0.00    +0.000 A 
ATOM     13  C   UNL     1      47.471 161.768  41.547  0.00  0.00    +0.001 A 
ATOM     14  C   UNL     1      47.725 160.468  41.992  0.00  0.00    +0.011 A 
ATOM     15  C   UNL     1      49.040 159.998  42.123  0.00  0.00    +0.017 A 
ATOM     16  C   UNL     1      50.096 160.859  41.783  0.00  0.00    +0.011 A 
ATOM     17  C   UNL     1      49.841 162.159  41.338  0.00  0.00    +0.001 A 
ENDBRANCH   1  15
BRANCH   8  18
ATOM     18  O   UNL     1      48.715 155.587  47.696  0.00  0.00    -0.507 OA
ATOM     19  H   UNL     1      48.532 154.649  47.879  0.00  0.00    +0.292 HD
ENDBRANCH   8  18
BRANCH   6  20
ATOM     20  O   UNL     1      50.368 153.758  43.631  0.00  0.00    -0.506 OA
ATOM     21  H   UNL     1      49.681 153.456  42.993  0.00  0.00    +0.292 HD
ENDBRANCH   6  20
TORSDOF 3
ENDMDL
MODEL 3
REMARK VINA RESULT:    -8.138      1.354      2.900
REMARK INTER + INTRA:          -9.391
REMARK INTER:                  -9.089
REMARK INTRA:                  -0.302
REMARK UNBOUND:                -0.301
REMARK  Name = 
REMARK  3 active torsions:
REMARK  status: ('A' for Active; 'I' for Inactive)
REMARK    1  A    between atoms: C_4  and  C_7
REMARK    2  A    between atoms: C_12  and  O_19
REMARK    3  A    between atoms: C_14  and  O_18
REMARK                            x       y       z     vdW  Elec       q    Type
REMARK                         _______ _______ _______ _____ _____    ______ ____
ROOT
ATOM      1  C   UNL     1      48.843 160.581  42.027  0.00  0.00    +0.139 A 
ATOM      2  C   UNL     1      48.077 159.555  42.425  0.00  0.00    +0.098 A 
ATOM      3  C   UNL     1      48.723 158.308  42.856  0.00  0.00    +0.197 A 
ATOM      4  O   UNL     1      48.071 157.342  43.235  0.00  0.00    -0.287 OA
ATOM      5  C   UNL     1      50.189 158.267  42.815  0.00  0.00    +0.105 A 
ATOM      6  C   UNL     1      50.903 157.128  43.204  0.00  0.00    +0.135 A 
ATOM      7  C   UNL     1      52.295 157.121  43.152  0.00  0.00    +0.091 A 
ATOM      8  C   UNL     1      52.964 158.260  42.709  0.00  0.00    +0.124 A 
ATOM      9  C   UNL     1      52.264 159.398  42.318  0.00  0.00    +0.092 A 
ATOM     10  C   UNL     1      50.870 159.399  42.373  0.00  0.00    +0.146 A 
ATOM     11  O   UNL     1      50.229 160.545  41.976  0.00  0.00    -0.454 OA
ENDROOT
BRANCH   1  15
ATOM     12  C   UNL     1      47.177 164.308  40.712  0.00  0.00    +0.000 A 
ATOM     13  C   UNL     1      48.532 164.041  40.532  0.00  0.00    +0.001 A 
ATOM     14  C   UNL     1      49.068 162.824  40.962  0.00  0.00    +0.011 A 
ATOM     15  C   UNL     1      48.256 161.857  41.572  0.00  0.00    +0.017 A 
ATOM     16  C   UNL     1      46.894 162.145  41.755  0.00  0.00    +0.011 A 
ATOM     17  C   UNL     1      46.358 163.362  41.325  0.00  0.00    +0.001 A 
ENDBRANCH   1  15
BRANCH   8  18
ATOM     18  O   UNL     1      54.325 158.300  42.640  0.00  0.00    -0.507 OA
ATOM     19  H   UNL     1      54.671 157.396  42.737  0.00  0.00    +0.292 HD
ENDBRANCH   8  18
BRANCH   6  20
ATOM     20  O   UNL     1      50.297 155.983  43.648  0.00  0.00    -0.506 OA
ATOM     21  H   UNL     1      49.357 156.194  43.852  0.00  0.00    +0.292 HD
ENDBRANCH   6  20
TORSDOF 3
ENDMDL
MODEL 4
REMARK VINA RESULT:    -8.032      2.042      6.097
REMARK INTER + INTRA:          -9.272
REMARK INTER:                  -9.014
REMARK INTRA:                  -0.258
REMARK UNBOUND:                -0.301
REMARK  Name = 
REMARK  3 active torsions:
REMARK  status: ('A' for Active; 'I' for Inactive)
REMARK    1  A    between atoms: C_4  and  C_7
REMARK    2  A    between atoms: C_12  and  O_19
REMARK    3  A    between atoms: C_14  and  O_18
REMARK                            x       y       z     vdW  Elec       q    Type
REMARK                         _______ _______ _______ _____ _____    ______ ____
ROOT
ATOM      1  C   UNL     1      49.757 157.820  43.503  0.00  0.00    +0.139 A 
ATOM      2  C   UNL     1      50.977 158.293  43.208  0.00  0.00    +0.098 A 
ATOM      3  C   UNL     1      51.091 159.569  42.489  0.00  0.00    +0.197 A 
ATOM      4  O   UNL     1      52.181 160.050  42.200  0.00  0.00    -0.287 OA
ATOM      5  C   UNL     1      49.841 160.248  42.129  0.00  0.00    +0.105 A 
ATOM      6  C   UNL     1      49.839 161.468  41.444  0.00  0.00    +0.135 A 
ATOM      7  C   UNL     1      48.634 162.086  41.116  0.00  0.00    +0.091 A 
ATOM      8  C   UNL     1      47.436 161.474  41.480  0.00  0.00    +0.124 A 
ATOM      9  C   UNL     1      47.427 160.260  42.161  0.00  0.00    +0.092 A 
ATOM     10  C   UNL     1      48.637 159.646  42.486  0.00  0.00    +0.146 A 
ATOM     11  O   UNL     1      48.572 158.451  43.156  0.00  0.00    -0.454 OA
ENDROOT
BRANCH   1  15
ATOM     12  C   UNL     1      49.237 154.120  45.609  0.00  0.00    +0.000 A 
ATOM     13  C   UNL     1      49.078 155.335  46.271  0.00  0.00    +0.001 A 
ATOM     14  C   UNL     1      49.248 156.536  45.579  0.00  0.00    +0.011 A 
ATOM     15  C   UNL     1      49.573 156.539  44.214  0.00  0.00    +0.017 A 
ATOM     16  C   UNL     1      49.739 155.307  43.563  0.00  0.00    +0.011 A 
ATOM     17  C   UNL     1      49.570 154.105  44.255  0.00  0.00    +0.001 A 
ENDBRANCH   1  15
BRANCH   8  18
ATOM     18  O   UNL     1      46.233 162.040  41.180  0.00  0.00    -0.507 OA
ATOM     19  H   UNL     1      46.378 162.964  40.912  0.00  0.00    +0.292 HD
ENDBRANCH   8  18
BRANCH   6  20
ATOM     20  O   UNL     1      50.985 162.112  41.064  0.00  0.00    -0.506 OA
ATOM     21  H   UNL     1      51.353 161.645  40.279  0.00  0.00    +0.292 HD
ENDBRANCH   6  20
TORSDOF 3
ENDMDL
MODEL 5
REMARK VINA RESULT:    -7.976      1.508      3.306
REMARK INTER + INTRA:          -9.210
REMARK INTER:                  -8.907
REMARK INTRA:                  -0.303
REMARK UNBOUND:                -0.301
REMARK  Name = 
REMARK  3 active torsions:
REMARK  status: ('A' for Active; 'I' for Inactive)
REMARK    1  A    between atoms: C_4  and  C_7
REMARK    2  A    between atoms: C_12  and  O_19
REMARK    3  A    between atoms: C_14  and  O_18
REMARK                            x       y       z     vdW  Elec       q    Type
REMARK                         _______ _______ _______ _____ _____    ______ ____
ROOT
ATOM      1  C   UNL     1      49.714 161.314  41.666  0.00  0.00    +0.139 A 
ATOM      2  C   UNL     1      48.491 160.795  41.850  0.00  0.00    +0.098 A 
ATOM      3  C   UNL     1      48.369 159.405  42.311  0.00  0.00    +0.197 A 
ATOM      4  O   UNL     1      47.276 158.884  42.502  0.00  0.00    -0.287 OA
ATOM      5  C   UNL     1      49.615 158.664  42.537  0.00  0.00    +0.105 A 
ATOM      6  C   UNL     1      49.610 157.335  42.976  0.00  0.00    +0.135 A 
ATOM      7  C   UNL     1      50.810 156.659  43.179  0.00  0.00    +0.091 A 
ATOM      8  C   UNL     1      52.012 157.322  42.939  0.00  0.00    +0.124 A 
ATOM      9  C   UNL     1      52.029 158.643  42.501  0.00  0.00    +0.092 A 
ATOM     10  C   UNL     1      50.823 159.315  42.300  0.00  0.00    +0.146 A 
ATOM     11  O   UNL     1      50.895 160.615  41.867  0.00  0.00    -0.454 OA
ENDROOT
BRANCH   1  15
ATOM     12  C   UNL     1      50.229 165.337  40.273  0.00  0.00    +0.000 A 
ATOM     13  C   UNL     1      48.952 164.818  40.469  0.00  0.00    +0.001 A 
ATOM     14  C   UNL     1      48.791 163.507  40.923  0.00  0.00    +0.011 A 
ATOM     15  C   UNL     1      49.905 162.699  41.194  0.00  0.00    +0.017 A 
ATOM     16  C   UNL     1      51.186 163.233  40.983  0.00  0.00    +0.011 A 
ATOM     17  C   UNL     1      51.347 164.545  40.527  0.00  0.00    +0.001 A 
ENDBRANCH   1  15
BRANCH   8  18
ATOM     18  O   UNL     1      53.212 156.702  43.123  0.00  0.00    -0.507 OA
ATOM     19  H   UNL     1      53.382 156.115  42.366  0.00  0.00    +0.292 HD
ENDBRANCH   8  18
BRANCH   6  20
ATOM     20  O   UNL     1      48.459 156.637  43.228  0.00  0.00    -0.506 OA
ATOM     21  H   UNL     1      48.702 155.806  43.696  0.00  0.00    +0.292 HD
ENDBRANCH   6  20
TORSDOF 3
ENDMDL
MODEL 6
REMARK VINA RESULT:    -7.918      2.592      6.899
REMARK INTER + INTRA:          -9.146
REMARK INTER:                  -8.870
REMARK INTRA:                  -0.275
REMARK UNBOUND:                -0.301
REMARK  Name = 
REMARK  3 active torsions:
REMARK  status: ('A' for Active; 'I' for Inactive)
REMARK    1  A    between atoms: C_4  and  C_7
REMARK    2  A    between atoms: C_12  and  O_19
REMARK    3  A    between atoms: C_14  and  O_18
REMARK                            x       y       z     vdW  Elec       q    Type
REMARK                         _______ _______ _______ _____ _____    ______ ____
ROOT
ATOM      1  C   UNL     1      48.903 160.103  41.781  0.00  0.00    +0.139 A 
ATOM      2  C   UNL     1      47.683 160.561  41.460  0.00  0.00    +0.098 A 
ATOM      3  C   UNL     1      47.542 161.948  40.999  0.00  0.00    +0.197 A 
ATOM      4  O   UNL     1      46.452 162.415  40.687  0.00  0.00    -0.287 OA
ATOM      5  C   UNL     1      48.764 162.756  40.924  0.00  0.00    +0.105 A 
ATOM      6  C   UNL     1      48.740 164.089  40.498  0.00  0.00    +0.135 A 
ATOM      7  C   UNL     1      49.919 164.828  40.440  0.00  0.00    +0.091 A 
ATOM      8  C   UNL     1      51.118 164.224  40.812  0.00  0.00    +0.124 A 
ATOM      9  C   UNL     1      51.154 162.900  41.239  0.00  0.00    +0.092 A 
ATOM     10  C   UNL     1      49.970 162.164  41.294  0.00  0.00    +0.146 A 
ATOM     11  O   UNL     1      50.061 160.864  41.723  0.00  0.00    -0.454 OA
ENDROOT
BRANCH   1  15
ATOM     12  C   UNL     1      49.492 156.105  43.217  0.00  0.00    +0.000 A 
ATOM     13  C   UNL     1      48.483 156.903  43.751  0.00  0.00    +0.001 A 
ATOM     14  C   UNL     1      48.296 158.204  43.278  0.00  0.00    +0.011 A 
ATOM     15  C   UNL     1      49.111 158.723  42.261  0.00  0.00    +0.017 A 
ATOM     16  C   UNL     1      50.129 157.909  41.739  0.00  0.00    +0.011 A 
ATOM     17  C   UNL     1      50.316 156.608  42.213  0.00  0.00    +0.001 A 
ENDBRANCH   1  15
BRANCH   8  18
ATOM     18  O   UNL     1      52.297 164.908  40.773  0.00  0.00    -0.507 OA
ATOM     19  H   UNL     1      52.492 165.147  39.850  0.00  0.00    +0.292 HD
ENDBRANCH   8  18
BRANCH   6  20
ATOM     20  O   UNL     1      47.591 164.730  40.120  0.00  0.00    -0.506 OA
ATOM     21  H   UNL     1      47.635 165.656  40.451  0.00  0.00    +0.292 HD
ENDBRANCH   6  20
TORSDOF 3
ENDMDL
MODEL 7
REMARK VINA RESULT:    -7.742      2.335      6.301
REMARK INTER + INTRA:          -8.948
REMARK INTER:                  -8.689
REMARK INTRA:                  -0.259
REMARK UNBOUND:                -0.301
REMARK  Name = 
REMARK  3 active torsions:
REMARK  status: ('A' for Active; 'I' for Inactive)
REMARK    1  A    between atoms: C_4  and  C_7
REMARK    2  A    between atoms: C_12  and  O_19
REMARK    3  A    between atoms: C_14  and  O_18
REMARK                            x       y       z     vdW  Elec       q    Type
REMARK                         _______ _______ _______ _____ _____    ______ ____
ROOT
ATOM      1  C   UNL     1      49.604 159.578  42.246  0.00  0.00    +0.139 A 
ATOM      2  C   UNL     1      50.791 160.171  42.051  0.00  0.00    +0.098 A 
ATOM      3  C   UNL     1      50.824 161.587  41.660  0.00  0.00    +0.197 A 
ATOM      4  O   UNL     1      51.881 162.179  41.474  0.00  0.00    -0.287 OA
ATOM      5  C   UNL     1      49.534 162.267  41.501  0.00  0.00    +0.105 A 
ATOM      6  C   UNL     1      49.454 163.614  41.131  0.00  0.00    +0.135 A 
ATOM      7  C   UNL     1      48.213 164.230  40.987  0.00  0.00    +0.091 A 
ATOM      8  C   UNL     1      47.056 163.487  41.216  0.00  0.00    +0.124 A 
ATOM      9  C   UNL     1      47.124 162.146  41.582  0.00  0.00    +0.092 A 
ATOM     10  C   UNL     1      48.370 161.536  41.725  0.00  0.00    +0.146 A 
ATOM     11  O   UNL     1      48.380 160.212  42.087  0.00  0.00    -0.454 OA
ENDROOT
BRANCH   1  15
ATOM     12  C   UNL     1      49.311 155.459  43.405  0.00  0.00    +0.000 A 
ATOM     13  C   UNL     1      48.917 156.466  44.282  0.00  0.00    +0.001 A 
ATOM     14  C   UNL     1      49.014 157.806  43.898  0.00  0.00    +0.011 A 
ATOM     15  C   UNL     1      49.501 158.157  42.630  0.00  0.00    +0.017 A 
ATOM     16  C   UNL     1      49.903 157.130  41.760  0.00  0.00    +0.011 A 
ATOM     17  C   UNL     1      49.806 155.790  42.145  0.00  0.00    +0.001 A 
ENDBRANCH   1  15
BRANCH   8  18
ATOM     18  O   UNL     1      45.820 164.046  41.086  0.00  0.00    -0.507 OA
ATOM     19  H   UNL     1      45.921 164.980  40.833  0.00  0.00    +0.292 HD
ENDBRANCH   8  18
BRANCH   6  20
ATOM     20  O   UNL     1      50.558 164.390  40.896  0.00  0.00    -0.506 OA
ATOM     21  H   UNL     1      50.369 165.299  41.224  0.00  0.00    +0.292 HD
ENDBRANCH   6  20
TORSDOF 3
ENDMDL
MODEL 8
REMARK VINA RESULT:    -7.738      2.519      4.771
REMARK INTER + INTRA:          -8.945
REMARK INTER:                  -8.641
REMARK INTRA:                  -0.304
REMARK UNBOUND:                -0.301
REMARK  Name = 
REMARK  3 active torsions:
REMARK  status: ('A' for Active; 'I' for Inactive)
REMARK    1  A    between atoms: C_4  and  C_7
REMARK    2  A    between atoms: C_12  and  O_19
REMARK    3  A    between atoms: C_14  and  O_18
REMARK                            x       y       z     vdW  Elec       q    Type
REMARK                         _______ _______ _______ _____ _____    ______ ____
ROOT
ATOM      1  C   UNL     1      52.244 159.042  42.281  0.00  0.00    +0.139 A 
ATOM      2  C   UNL     1      51.118 159.768  42.338  0.00  0.00    +0.098 A 
ATOM      3  C   UNL     1      49.869 159.114  42.752  0.00  0.00    +0.197 A 
ATOM      4  O   UNL     1      48.813 159.732  42.828  0.00  0.00    -0.287 OA
ATOM      5  C   UNL     1      49.938 157.684  43.076  0.00  0.00    +0.105 A 
ATOM      6  C   UNL     1      48.807 156.967  43.481  0.00  0.00    +0.135 A 
ATOM      7  C   UNL     1      48.907 155.610  43.779  0.00  0.00    +0.091 A 
ATOM      8  C   UNL     1      50.145 154.980  43.668  0.00  0.00    +0.124 A 
ATOM      9  C   UNL     1      51.276 155.683  43.264  0.00  0.00    +0.092 A 
ATOM     10  C   UNL     1      51.170 157.042  42.968  0.00  0.00    +0.146 A 
ATOM     11  O   UNL     1      52.314 157.688  42.574  0.00  0.00    -0.454 OA
ENDROOT
BRANCH   1  15
ATOM     12  C   UNL     1      55.999 160.735  41.086  0.00  0.00    +0.000 A 
ATOM     13  C   UNL     1      55.891 159.370  41.339  0.00  0.00    +0.001 A 
ATOM     14  C   UNL     1      54.665 158.825  41.727  0.00  0.00    +0.011 A 
ATOM     15  C   UNL     1      53.529 159.636  41.861  0.00  0.00    +0.017 A 
ATOM     16  C   UNL     1      53.655 161.012  41.612  0.00  0.00    +0.011 A 
ATOM     17  C   UNL     1      54.882 161.557  41.225  0.00  0.00    +0.001 A 
ENDBRANCH   1  15
BRANCH   8  18
ATOM     18  O   UNL     1      50.291 153.654  43.948  0.00  0.00    -0.507 OA
ATOM     19  H   UNL     1      51.113 153.527  44.453  0.00  0.00    +0.292 HD
ENDBRANCH   8  18
BRANCH   6  20
ATOM     20  O   UNL     1      47.569 157.536  43.607  0.00  0.00    -0.506 OA
ATOM     21  H   UNL     1      47.687 158.453  43.947  0.00  0.00    +0.292 HD
ENDBRANCH   6  20
TORSDOF 3
ENDMDL
MODEL 9
REMARK VINA RESULT:    -7.519      2.072      4.038
REMARK INTER + INTRA:          -8.700
REMARK INTER:                  -8.448
REMARK INTRA:                  -0.252
REMARK UNBOUND:                -0.301
REMARK  Name = 
REMARK  3 active torsions:
REMARK  status: ('A' for Active; 'I' for Inactive)
REMARK    1  A    between atoms: C_4  and  C_7
REMARK    2  A    between atoms: C_12  and  O_19
REMARK    3  A    between atoms: C_14  and  O_18
REMARK                            x       y       z     vdW  Elec       q    Type
REMARK                         _______ _______ _______ _____ _____    ______ ____
ROOT
ATOM      1  C   UNL     1      50.234 160.420  41.980  0.00  0.00    +0.139 A 
ATOM      2  C   UNL     1      50.217 159.113  42.282  0.00  0.00    +0.098 A 
ATOM      3  C   UNL     1      51.491 158.387  42.374  0.00  0.00    +0.197 A 
ATOM      4  O   UNL     1      51.533 157.194  42.653  0.00  0.00    -0.287 OA
ATOM      5  C   UNL     1      52.717 159.152  42.120  0.00  0.00    +0.105 A 
ATOM      6  C   UNL     1      53.981 158.556  42.182  0.00  0.00    +0.135 A 
ATOM      7  C   UNL     1      55.125 159.311  41.933  0.00  0.00    +0.091 A 
ATOM      8  C   UNL     1      54.992 160.663  41.622  0.00  0.00    +0.124 A 
ATOM      9  C   UNL     1      53.739 161.265  41.556  0.00  0.00    +0.092 A 
ATOM     10  C   UNL     1      52.598 160.504  41.807  0.00  0.00    +0.146 A 
ATOM     11  O   UNL     1      51.388 161.146  41.728  0.00  0.00    -0.454 OA
ENDROOT
BRANCH   1  15
ATOM     12  C   UNL     1      46.628 162.709  41.593  0.00  0.00    +0.000 A 
ATOM     13  C   UNL     1      47.205 162.111  40.475  0.00  0.00    +0.001 A 
ATOM     14  C   UNL     1      48.380 161.366  40.609  0.00  0.00    +0.011 A 
ATOM     15  C   UNL     1      48.989 161.204  41.862  0.00  0.00    +0.017 A 
ATOM     16  C   UNL     1      48.399 161.820  42.977  0.00  0.00    +0.011 A 
ATOM     17  C   UNL     1      47.225 162.566  42.844  0.00  0.00    +0.001 A 
ENDBRANCH   1  15
BRANCH   8  18
ATOM     18  O   UNL     1      56.083 161.441  41.370  0.00  0.00    -0.507 OA
ATOM     19  H   UNL     1      55.846 162.108  40.703  0.00  0.00    +0.292 HD
ENDBRANCH   8  18
BRANCH   6  20
ATOM     20  O   UNL     1      54.168 157.234  42.484  0.00  0.00    -0.506 OA
ATOM     21  H   UNL     1      54.269 156.739  41.639  0.00  0.00    +0.292 HD
ENDBRANCH   6  20
TORSDOF 3
ENDMDL
