MODEL 1
REMARK VINA RESULT:    -8.199      0.000      0.000
REMARK INTER + INTRA:         -13.605
REMARK INTER:                 -12.513
REMARK INTRA:                  -1.092
REMARK UNBOUND:                -1.092
REMARK  Name = 
REMARK  12 active torsions:
REMARK  status: ('A' for Active; 'I' for Inactive)
REMARK    1  A    between atoms: C_1  and  O_2
REMARK    2  A    between atoms: O_2  and  C_3
REMARK    3  A    between atoms: C_4  and  O_27
REMARK    4  A    between atoms: C_7  and  C_9
REMARK    5  A    between atoms: C_10  and  C_11
REMARK    6  A    between atoms: C_11  and  C_13
REMARK    7  A    between atoms: C_13  and  C_14
REMARK    8  A    between atoms: C_14  and  C_16
REMARK    9  A    between atoms: C_17  and  C_18
REMARK   10  A    between atoms: C_20  and  O_25
REMARK   11  A    between atoms: C_21  and  O_24
REMARK   12  A    between atoms: O_25  and  C_26
REMARK                            x       y       z     vdW  Elec       q    Type
REMARK                         _______ _______ _______ _____ _____    ______ ____
ROOT
ATOM      1  C   UNL     1      48.404 161.439  40.919  0.00  0.00    +0.158 C 
ENDROOT
BRANCH   1   2
ATOM      2  C   UNL     1      47.419 162.310  41.656  0.00  0.00    +0.164 C 
ATOM      3  O   UNL     1      47.351 162.283  42.887  0.00  0.00    -0.292 OA
BRANCH   2   5
ATOM      4  C   UNL     1      46.831 164.505  40.537  0.00  0.00    +0.011 C 
ATOM      5  C   UNL     1      46.531 163.261  40.936  0.00  0.00    +0.047 C 
BRANCH   4  10
ATOM      6  C   UNL     1      49.384 166.931  41.896  0.00  0.00    +0.162 A 
ATOM      7  C   UNL     1      50.500 166.543  41.146  0.00  0.00    +0.158 A 
ATOM      8  C   UNL     1      50.423 165.534  40.195  0.00  0.00    +0.050 A 
ATOM      9  C   UNL     1      49.211 164.875  40.000  0.00  0.00    +0.012 A 
ATOM     10  C   UNL     1      48.088 165.225  40.758  0.00  0.00    -0.021 A 
ATOM     11  C   UNL     1      48.172 166.273  41.689  0.00  0.00    +0.057 A 
BRANCH   6  13
ATOM     12  C   UNL     1      49.701 167.580  44.162  0.00  0.00    +0.277 C 
ATOM     13  O   UNL     1      49.613 167.946  42.789  0.00  0.00    -0.491 OA
ENDBRANCH   6  13
BRANCH   7  14
ATOM     14  O   UNL     1      51.707 167.159  41.339  0.00  0.00    -0.503 OA
ATOM     15  H   UNL     1      52.334 166.430  41.517  0.00  0.00    +0.292 HD
ENDBRANCH   7  14
ENDBRANCH   4  10
ENDBRANCH   2   5
ENDBRANCH   1   2
BRANCH   1  16
ATOM     16  C   UNL     1      49.771 161.309  41.541  0.00  0.00    +0.164 C 
ATOM     17  O   UNL     1      50.583 162.231  41.556  0.00  0.00    -0.292 OA
BRANCH  16  18
ATOM     18  C   UNL     1      50.112 159.969  42.106  0.00  0.00    +0.047 C 
ATOM     19  C   UNL     1      49.254 158.946  41.991  0.00  0.00    +0.011 C 
BRANCH  19  20
ATOM     20  C   UNL     1      49.522 157.598  42.514  0.00  0.00    -0.021 A 
ATOM     21  C   UNL     1      49.001 157.156  43.743  0.00  0.00    +0.057 A 
ATOM     22  C   UNL     1      49.303 155.879  44.223  0.00  0.00    +0.162 A 
ATOM     23  C   UNL     1      50.132 155.052  43.460  0.00  0.00    +0.158 A 
ATOM     24  C   UNL     1      50.669 155.474  42.251  0.00  0.00    +0.050 A 
ATOM     25  C   UNL     1      50.368 156.752  41.782  0.00  0.00    +0.012 A 
BRANCH  23  26
ATOM     26  O   UNL     1      50.442 153.793  43.900  0.00  0.00    -0.503 OA
ATOM     27  H   UNL     1      50.104 153.195  43.206  0.00  0.00    +0.292 HD
ENDBRANCH  23  26
BRANCH  22  28
ATOM     28  O   UNL     1      48.861 155.331  45.400  0.00  0.00    -0.491 OA
ATOM     29  C   UNL     1      49.176 156.042  46.592  0.00  0.00    +0.277 C 
ENDBRANCH  22  28
ENDBRANCH  19  20
ENDBRANCH  16  18
ENDBRANCH   1  16
TORSDOF 10
ENDMDL
MODEL 2
REMARK VINA RESULT:    -8.198      1.278      2.087
REMARK INTER + INTRA:         -13.603
REMARK INTER:                 -12.410
REMARK INTRA:                  -1.194
REMARK UNBOUND:                -1.092
REMARK  Name = 
REMARK  12 active torsions:
REMARK  status: ('A' for Active; 'I' for Inactive)
REMARK    1  A    between atoms: C_1  and  O_2
REMARK    2  A    between atoms: O_2  and  C_3
REMARK    3  A    between atoms: C_4  and  O_27
REMARK    4  A    between atoms: C_7  and  C_9
REMARK    5  A    between atoms: C_10  and  C_11
REMARK    6  A    between atoms: C_11  and  C_13
REMARK    7  A    between atoms: C_13  and  C_14
REMARK    8  A    between atoms: C_14  and  C_16
REMARK    9  A    between atoms: C_17  and  C_18
REMARK   10  A    between atoms: C_20  and  O_25
REMARK   11  A    between atoms: C_21  and  O_24
REMARK   12  A    between atoms: O_25  and  C_26
REMARK                            x       y       z     vdW  Elec       q    Type
REMARK                         _______ _______ _______ _____ _____    ______ ____
ROOT
ATOM      1  C   UNL     1      47.818 161.938  40.384  0.00  0.00    +0.158 C 
ENDROOT
BRANCH   1   2
ATOM      2  C   UNL     1      47.006 162.931  41.176  0.00  0.00    +0.164 C 
ATOM      3  O   UNL     1      46.565 162.638  42.289  0.00  0.00    -0.292 OA
BRANCH   2   5
ATOM      4  C   UNL     1      47.609 165.332  40.640  0.00  0.00    +0.011 C 
ATOM      5  C   UNL     1      46.748 164.305  40.670  0.00  0.00    +0.047 C 
BRANCH   4  10
ATOM      6  C   UNL     1      51.383 165.328  40.756  0.00  0.00    +0.162 A 
ATOM      7  C   UNL     1      51.575 165.386  42.141  0.00  0.00    +0.158 A 
ATOM      8  C   UNL     1      50.505 165.397  43.026  0.00  0.00    +0.050 A 
ATOM      9  C   UNL     1      49.206 165.374  42.521  0.00  0.00    +0.012 A 
ATOM     10  C   UNL     1      48.987 165.345  41.139  0.00  0.00    -0.021 A 
ATOM     11  C   UNL     1      50.079 165.296  40.259  0.00  0.00    +0.057 A 
BRANCH   6  13
ATOM     12  C   UNL     1      52.950 164.053  39.501  0.00  0.00    +0.277 C 
ATOM     13  O   UNL     1      52.535 165.315  40.013  0.00  0.00    -0.491 OA
ENDBRANCH   6  13
BRANCH   7  14
ATOM     14  O   UNL     1      52.842 165.436  42.658  0.00  0.00    -0.503 OA
ATOM     15  H   UNL     1      52.715 165.549  43.621  0.00  0.00    +0.292 HD
ENDBRANCH   7  14
ENDBRANCH   4  10
ENDBRANCH   2   5
ENDBRANCH   1   2
BRANCH   1  16
ATOM     16  C   UNL     1      49.040 161.381  41.068  0.00  0.00    +0.164 C 
ATOM     17  O   UNL     1      50.023 162.068  41.332  0.00  0.00    -0.292 OA
BRANCH  16  18
ATOM     18  C   UNL     1      49.014 159.920  41.375  0.00  0.00    +0.047 C 
ATOM     19  C   UNL     1      49.802 159.414  42.335  0.00  0.00    +0.011 C 
BRANCH  19  20
ATOM     20  C   UNL     1      49.827 157.990  42.700  0.00  0.00    -0.021 A 
ATOM     21  C   UNL     1      49.285 157.519  43.908  0.00  0.00    +0.057 A 
ATOM     22  C   UNL     1      49.355 156.163  44.236  0.00  0.00    +0.162 A 
ATOM     23  C   UNL     1      49.974 155.285  43.341  0.00  0.00    +0.158 A 
ATOM     24  C   UNL     1      50.529 155.732  42.149  0.00  0.00    +0.050 A 
ATOM     25  C   UNL     1      50.461 157.088  41.833  0.00  0.00    +0.012 A 
BRANCH  23  26
ATOM     26  O   UNL     1      50.053 153.950  43.630  0.00  0.00    -0.503 OA
ATOM     27  H   UNL     1      49.737 153.873  44.551  0.00  0.00    +0.292 HD
ENDBRANCH  23  26
BRANCH  22  28
ATOM     28  O   UNL     1      48.866 155.579  45.377  0.00  0.00    -0.491 OA
ATOM     29  C   UNL     1      49.197 156.212  46.609  0.00  0.00    +0.277 C 
ENDBRANCH  22  28
ENDBRANCH  19  20
ENDBRANCH  16  18
ENDBRANCH   1  16
TORSDOF 10
ENDMDL
MODEL 3
REMARK VINA RESULT:    -7.823      3.120      4.693
REMARK INTER + INTRA:         -13.030
REMARK INTER:                 -10.981
REMARK INTRA:                  -2.049
REMARK UNBOUND:                -1.092
REMARK  Name = 
REMARK  12 active torsions:
REMARK  status: ('A' for Active; 'I' for Inactive)
REMARK    1  A    between atoms: C_1  and  O_2
REMARK    2  A    between atoms: O_2  and  C_3
REMARK    3  A    between atoms: C_4  and  O_27
REMARK    4  A    between atoms: C_7  and  C_9
REMARK    5  A    between atoms: C_10  and  C_11
REMARK    6  A    between atoms: C_11  and  C_13
REMARK    7  A    between atoms: C_13  and  C_14
REMARK    8  A    between atoms: C_14  and  C_16
REMARK    9  A    between atoms: C_17  and  C_18
REMARK   10  A    between atoms: C_20  and  O_25
REMARK   11  A    between atoms: C_21  and  O_24
REMARK   12  A    between atoms: O_25  and  C_26
REMARK                            x       y       z     vdW  Elec       q    Type
REMARK                         _______ _______ _______ _____ _____    ______ ____
ROOT
ATOM      1  C   UNL     1      49.125 163.055  42.428  0.00  0.00    +0.158 C 
ENDROOT
BRANCH   1   2
ATOM      2  C   UNL     1      50.449 163.755  42.256  0.00  0.00    +0.164 C 
ATOM      3  O   UNL     1      50.940 164.410  43.178  0.00  0.00    -0.292 OA
BRANCH   2   5
ATOM      4  C   UNL     1      52.325 162.903  40.782  0.00  0.00    +0.011 C 
ATOM      5  C   UNL     1      51.229 163.646  40.995  0.00  0.00    +0.047 C 
BRANCH   4  10
ATOM      6  C   UNL     1      54.662 161.785  43.529  0.00  0.00    +0.162 A 
ATOM      7  C   UNL     1      54.312 160.432  43.598  0.00  0.00    +0.158 A 
ATOM      8  C   UNL     1      53.359 159.881  42.752  0.00  0.00    +0.050 A 
ATOM      9  C   UNL     1      52.716 160.702  41.828  0.00  0.00    +0.012 A 
ATOM     10  C   UNL     1      53.027 162.065  41.758  0.00  0.00    -0.021 A 
ATOM     11  C   UNL     1      54.020 162.599  42.595  0.00  0.00    +0.057 A 
BRANCH   6  13
ATOM     12  C   UNL     1      55.355 163.362  45.169  0.00  0.00    +0.277 C 
ATOM     13  O   UNL     1      55.624 162.180  44.422  0.00  0.00    -0.491 OA
ENDBRANCH   6  13
BRANCH   7  14
ATOM     14  O   UNL     1      54.913 159.613  44.516  0.00  0.00    -0.503 OA
ATOM     15  H   UNL     1      55.817 159.973  44.619  0.00  0.00    +0.292 HD
ENDBRANCH   7  14
ENDBRANCH   4  10
ENDBRANCH   2   5
ENDBRANCH   1   2
BRANCH   1  16
ATOM     16  C   UNL     1      48.637 162.254  41.248  0.00  0.00    +0.164 C 
ATOM     17  O   UNL     1      48.022 162.761  40.313  0.00  0.00    -0.292 OA
BRANCH  16  18
ATOM     18  C   UNL     1      48.902 160.786  41.293  0.00  0.00    +0.047 C 
ATOM     19  C   UNL     1      49.079 160.164  42.468  0.00  0.00    +0.011 C 
BRANCH  19  20
ATOM     20  C   UNL     1      49.335 158.722  42.594  0.00  0.00    -0.021 A 
ATOM     21  C   UNL     1      48.955 157.993  43.734  0.00  0.00    +0.057 A 
ATOM     22  C   UNL     1      49.243 156.629  43.833  0.00  0.00    +0.162 A 
ATOM     23  C   UNL     1      49.916 156.005  42.778  0.00  0.00    +0.158 A 
ATOM     24  C   UNL     1      50.313 156.710  41.650  0.00  0.00    +0.050 A 
ATOM     25  C   UNL     1      50.028 158.072  41.563  0.00  0.00    +0.012 A 
BRANCH  23  26
ATOM     26  O   UNL     1      50.207 154.670  42.842  0.00  0.00    -0.503 OA
ATOM     27  H   UNL     1      49.359 154.219  42.665  0.00  0.00    +0.292 HD
ENDBRANCH  23  26
BRANCH  22  28
ATOM     28  O   UNL     1      48.926 155.809  44.885  0.00  0.00    -0.491 OA
ATOM     29  C   UNL     1      48.964 156.394  46.183  0.00  0.00    +0.277 C 
ENDBRANCH  22  28
ENDBRANCH  19  20
ENDBRANCH  16  18
ENDBRANCH   1  16
TORSDOF 10
ENDMDL
MODEL 4
REMARK VINA RESULT:    -7.770      2.150      3.301
REMARK INTER + INTRA:         -12.950
REMARK INTER:                 -11.297
REMARK INTRA:                  -1.654
REMARK UNBOUND:                -1.092
REMARK  Name = 
REMARK  12 active torsions:
REMARK  status: ('A' for Active; 'I' for Inactive)
REMARK    1  A    between atoms: C_1  and  O_2
REMARK    2  A    between atoms: O_2  and  C_3
REMARK    3  A    between atoms: C_4  and  O_27
REMARK    4  A    between atoms: C_7  and  C_9
REMARK    5  A    between atoms: C_10  and  C_11
REMARK    6  A    between atoms: C_11  and  C_13
REMARK    7  A    between atoms: C_13  and  C_14
REMARK    8  A    between atoms: C_14  and  C_16
REMARK    9  A    between atoms: C_17  and  C_18
REMARK   10  A    between atoms: C_20  and  O_25
REMARK   11  A    between atoms: C_21  and  O_24
REMARK   12  A    between atoms: O_25  and  C_26
REMARK                            x       y       z     vdW  Elec       q    Type
REMARK                         _______ _______ _______ _____ _____    ______ ____
ROOT
ATOM      1  C   UNL     1      47.697 163.608  39.974  0.00  0.00    +0.158 C 
ENDROOT
BRANCH   1   2
ATOM      2  C   UNL     1      47.949 164.584  41.094  0.00  0.00    +0.164 C 
ATOM      3  O   UNL     1      47.563 165.752  41.011  0.00  0.00    -0.292 OA
BRANCH   2   5
ATOM      4  C   UNL     1      49.943 164.165  42.600  0.00  0.00    +0.011 C 
ATOM      5  C   UNL     1      48.625 164.169  42.351  0.00  0.00    +0.047 C 
BRANCH   4  10
ATOM      6  C   UNL     1      52.518 166.170  40.702  0.00  0.00    +0.162 A 
ATOM      7  C   UNL     1      53.065 165.157  39.908  0.00  0.00    +0.158 A 
ATOM      8  C   UNL     1      52.592 163.853  39.961  0.00  0.00    +0.050 A 
ATOM      9  C   UNL     1      51.562 163.540  40.846  0.00  0.00    +0.012 A 
ATOM     10  C   UNL     1      51.017 164.529  41.672  0.00  0.00    -0.021 A 
ATOM     11  C   UNL     1      51.481 165.851  41.580  0.00  0.00    +0.057 A 
BRANCH   6  13
ATOM     12  C   UNL     1      52.335 168.354  39.776  0.00  0.00    +0.277 C 
ATOM     13  O   UNL     1      53.084 167.407  40.533  0.00  0.00    -0.491 OA
ENDBRANCH   6  13
BRANCH   7  14
ATOM     14  O   UNL     1      54.095 165.437  39.050  0.00  0.00    -0.503 OA
ATOM     15  H   UNL     1      53.720 165.304  38.156  0.00  0.00    +0.292 HD
ENDBRANCH   7  14
ENDBRANCH   4  10
ENDBRANCH   2   5
ENDBRANCH   1   2
BRANCH   1  16
ATOM     16  C   UNL     1      47.378 162.193  40.383  0.00  0.00    +0.164 C 
ATOM     17  O   UNL     1      46.227 161.796  40.551  0.00  0.00    -0.292 OA
BRANCH  16  18
ATOM     18  C   UNL     1      48.547 161.295  40.621  0.00  0.00    +0.047 C 
ATOM     19  C   UNL     1      48.493 160.349  41.569  0.00  0.00    +0.011 C 
BRANCH  19  20
ATOM     20  C   UNL     1      49.598 159.423  41.857  0.00  0.00    -0.021 A 
ATOM     21  C   UNL     1      49.411 158.031  41.910  0.00  0.00    +0.057 A 
ATOM     22  C   UNL     1      50.479 157.183  42.217  0.00  0.00    +0.162 A 
ATOM     23  C   UNL     1      51.733 157.745  42.471  0.00  0.00    +0.158 A 
ATOM     24  C   UNL     1      51.936 159.118  42.439  0.00  0.00    +0.050 A 
ATOM     25  C   UNL     1      50.864 159.958  42.138  0.00  0.00    +0.012 A 
BRANCH  23  26
ATOM     26  O   UNL     1      52.800 156.941  42.769  0.00  0.00    -0.503 OA
ATOM     27  H   UNL     1      52.798 156.255  42.075  0.00  0.00    +0.292 HD
ENDBRANCH  23  26
BRANCH  22  28
ATOM     28  O   UNL     1      50.429 155.815  42.299  0.00  0.00    -0.491 OA
ATOM     29  C   UNL     1      49.685 155.268  43.383  0.00  0.00    +0.277 C 
ENDBRANCH  22  28
ENDBRANCH  19  20
ENDBRANCH  16  18
ENDBRANCH   1  16
TORSDOF 10
ENDMDL
MODEL 5
REMARK VINA RESULT:    -7.742      0.964      1.811
REMARK INTER + INTRA:         -12.907
REMARK INTER:                 -11.978
REMARK INTRA:                  -0.929
REMARK UNBOUND:                -1.092
REMARK  Name = 
REMARK  12 active torsions:
REMARK  status: ('A' for Active; 'I' for Inactive)
REMARK    1  A    between atoms: C_1  and  O_2
REMARK    2  A    between atoms: O_2  and  C_3
REMARK    3  A    between atoms: C_4  and  O_27
REMARK    4  A    between atoms: C_7  and  C_9
REMARK    5  A    between atoms: C_10  and  C_11
REMARK    6  A    between atoms: C_11  and  C_13
REMARK    7  A    between atoms: C_13  and  C_14
REMARK    8  A    between atoms: C_14  and  C_16
REMARK    9  A    between atoms: C_17  and  C_18
REMARK   10  A    between atoms: C_20  and  O_25
REMARK   11  A    between atoms: C_21  and  O_24
REMARK   12  A    between atoms: O_25  and  C_26
REMARK                            x       y       z     vdW  Elec       q    Type
REMARK                         _______ _______ _______ _____ _____    ______ ____
ROOT
ATOM      1  C   UNL     1      48.244 160.840  41.123  0.00  0.00    +0.158 C 
ENDROOT
BRANCH   1   2
ATOM      2  C   UNL     1      47.372 161.955  41.640  0.00  0.00    +0.164 C 
ATOM      3  O   UNL     1      47.310 162.199  42.847  0.00  0.00    -0.292 OA
BRANCH   2   5
ATOM      4  C   UNL     1      46.936 164.047  40.279  0.00  0.00    +0.011 C 
ATOM      5  C   UNL     1      46.596 162.827  40.719  0.00  0.00    +0.047 C 
BRANCH   4  10
ATOM      6  C   UNL     1      49.197 166.652  41.814  0.00  0.00    +0.162 A 
ATOM      7  C   UNL     1      50.428 166.222  41.308  0.00  0.00    +0.158 A 
ATOM      8  C   UNL     1      50.525 165.127  40.460  0.00  0.00    +0.050 A 
ATOM      9  C   UNL     1      49.371 164.422  40.125  0.00  0.00    +0.012 A 
ATOM     10  C   UNL     1      48.131 164.815  40.642  0.00  0.00    -0.021 A 
ATOM     11  C   UNL     1      48.044 165.947  41.468  0.00  0.00    +0.057 A 
BRANCH   6  13
ATOM     12  C   UNL     1      48.576 168.918  42.184  0.00  0.00    +0.277 C 
ATOM     13  O   UNL     1      49.260 167.752  42.631  0.00  0.00    -0.491 OA
ENDBRANCH   6  13
BRANCH   7  14
ATOM     14  O   UNL     1      51.579 166.883  41.644  0.00  0.00    -0.503 OA
ATOM     15  H   UNL     1      52.267 166.498  41.066  0.00  0.00    +0.292 HD
ENDBRANCH   7  14
ENDBRANCH   4  10
ENDBRANCH   2   5
ENDBRANCH   1   2
BRANCH   1  16
ATOM     16  C   UNL     1      49.519 160.585  41.884  0.00  0.00    +0.164 C 
ATOM     17  O   UNL     1      50.571 161.167  41.629  0.00  0.00    -0.292 OA
BRANCH  16  18
ATOM     18  C   UNL     1      49.454 159.541  42.950  0.00  0.00    +0.047 C 
ATOM     19  C   UNL     1      49.492 158.240  42.628  0.00  0.00    +0.011 C 
BRANCH  19  20
ATOM     20  C   UNL     1      49.441 157.156  43.620  0.00  0.00    -0.021 A 
ATOM     21  C   UNL     1      49.826 155.840  43.309  0.00  0.00    +0.057 A 
ATOM     22  C   UNL     1      49.733 154.829  44.268  0.00  0.00    +0.162 A 
ATOM     23  C   UNL     1      49.252 155.149  45.541  0.00  0.00    +0.158 A 
ATOM     24  C   UNL     1      48.853 156.439  45.864  0.00  0.00    +0.050 A 
ATOM     25  C   UNL     1      48.941 157.441  44.899  0.00  0.00    +0.012 A 
BRANCH  23  26
ATOM     26  O   UNL     1      49.156 154.182  46.504  0.00  0.00    -0.503 OA
ATOM     27  H   UNL     1      48.726 153.427  46.059  0.00  0.00    +0.292 HD
ENDBRANCH  23  26
BRANCH  22  28
ATOM     28  O   UNL     1      50.076 153.512  44.092  0.00  0.00    -0.491 OA
ATOM     29  C   UNL     1      51.467 153.219  44.019  0.00  0.00    +0.277 C 
ENDBRANCH  22  28
ENDBRANCH  19  20
ENDBRANCH  16  18
ENDBRANCH   1  16
TORSDOF 10
ENDMDL
MODEL 6
REMARK VINA RESULT:    -7.730      1.403      9.502
REMARK INTER + INTRA:         -12.889
REMARK INTER:                 -11.936
REMARK INTRA:                  -0.953
REMARK UNBOUND:                -1.092
REMARK  Name = 
REMARK  12 active torsions:
REMARK  status: ('A' for Active; 'I' for Inactive)
REMARK    1  A    between atoms: C_1  and  O_2
REMARK    2  A    between atoms: O_2  and  C_3
REMARK    3  A    between atoms: C_4  and  O_27
REMARK    4  A    between atoms: C_7  and  C_9
REMARK    5  A    between atoms: C_10  and  C_11
REMARK    6  A    between atoms: C_11  and  C_13
REMARK    7  A    between atoms: C_13  and  C_14
REMARK    8  A    between atoms: C_14  and  C_16
REMARK    9  A    between atoms: C_17  and  C_18
REMARK   10  A    between atoms: C_20  and  O_25
REMARK   11  A    between atoms: C_21  and  O_24
REMARK   12  A    between atoms: O_25  and  C_26
REMARK                            x       y       z     vdW  Elec       q    Type
REMARK                         _______ _______ _______ _____ _____    ______ ____
ROOT
ATOM      1  C   UNL     1      47.893 161.151  40.472  0.00  0.00    +0.158 C 
ENDROOT
BRANCH   1   2
ATOM      2  C   UNL     1      48.563 161.131  41.822  0.00  0.00    +0.164 C 
ATOM      3  O   UNL     1      47.894 161.162  42.858  0.00  0.00    -0.292 OA
BRANCH   2   5
ATOM      4  C   UNL     1      50.753 159.925  42.228  0.00  0.00    +0.011 C 
ATOM      5  C   UNL     1      50.040 161.028  41.957  0.00  0.00    +0.047 C 
BRANCH   4  10
ATOM      6  C   UNL     1      49.068 157.003  43.923  0.00  0.00    +0.162 A 
ATOM      7  C   UNL     1      49.259 156.022  42.944  0.00  0.00    +0.158 A 
ATOM      8  C   UNL     1      49.947 156.289  41.768  0.00  0.00    +0.050 A 
ATOM      9  C   UNL     1      50.437 157.575  41.546  0.00  0.00    +0.012 A 
ATOM     10  C   UNL     1      50.234 158.581  42.497  0.00  0.00    -0.021 A 
ATOM     11  C   UNL     1      49.570 158.285  43.698  0.00  0.00    +0.057 A 
BRANCH   6  13
ATOM     12  C   UNL     1      49.141 156.371  46.215  0.00  0.00    +0.277 C 
ATOM     13  O   UNL     1      48.378 156.586  45.032  0.00  0.00    -0.491 OA
ENDBRANCH   6  13
BRANCH   7  14
ATOM     14  O   UNL     1      48.763 154.759  43.130  0.00  0.00    -0.503 OA
ATOM     15  H   UNL     1      49.286 154.391  43.871  0.00  0.00    +0.292 HD
ENDBRANCH   7  14
ENDBRANCH   4  10
ENDBRANCH   2   5
ENDBRANCH   1   2
BRANCH   1  16
ATOM     16  C   UNL     1      47.359 162.483  40.013  0.00  0.00    +0.164 C 
ATOM     17  O   UNL     1      46.265 162.606  39.468  0.00  0.00    -0.292 OA
BRANCH  16  18
ATOM     18  C   UNL     1      48.257 163.658  40.215  0.00  0.00    +0.047 C 
ATOM     19  C   UNL     1      47.836 164.721  40.916  0.00  0.00    +0.011 C 
BRANCH  19  20
ATOM     20  C   UNL     1      48.664 165.911  41.164  0.00  0.00    -0.021 A 
ATOM     21  C   UNL     1      49.991 166.004  40.712  0.00  0.00    +0.057 A 
ATOM     22  C   UNL     1      50.759 167.137  40.994  0.00  0.00    +0.162 A 
ATOM     23  C   UNL     1      50.182 168.173  41.734  0.00  0.00    +0.158 A 
ATOM     24  C   UNL     1      48.878 168.095  42.203  0.00  0.00    +0.050 A 
ATOM     25  C   UNL     1      48.121 166.958  41.924  0.00  0.00    +0.012 A 
BRANCH  23  26
ATOM     26  O   UNL     1      50.906 169.299  42.022  0.00  0.00    -0.503 OA
ATOM     27  H   UNL     1      51.559 169.368  41.299  0.00  0.00    +0.292 HD
ENDBRANCH  23  26
BRANCH  22  28
ATOM     28  O   UNL     1      52.058 167.350  40.611  0.00  0.00    -0.491 OA
ATOM     29  C   UNL     1      52.266 167.767  39.265  0.00  0.00    +0.277 C 
ENDBRANCH  22  28
ENDBRANCH  19  20
ENDBRANCH  16  18
ENDBRANCH   1  16
TORSDOF 10
ENDMDL
MODEL 7
REMARK VINA RESULT:    -7.683      1.941      9.142
REMARK INTER + INTRA:         -12.817
REMARK INTER:                 -11.767
REMARK INTRA:                  -1.050
REMARK UNBOUND:                -1.092
REMARK  Name = 
REMARK  12 active torsions:
REMARK  status: ('A' for Active; 'I' for Inactive)
REMARK    1  A    between atoms: C_1  and  O_2
REMARK    2  A    between atoms: O_2  and  C_3
REMARK    3  A    between atoms: C_4  and  O_27
REMARK    4  A    between atoms: C_7  and  C_9
REMARK    5  A    between atoms: C_10  and  C_11
REMARK    6  A    between atoms: C_11  and  C_13
REMARK    7  A    between atoms: C_13  and  C_14
REMARK    8  A    between atoms: C_14  and  C_16
REMARK    9  A    between atoms: C_17  and  C_18
REMARK   10  A    between atoms: C_20  and  O_25
REMARK   11  A    between atoms: C_21  and  O_24
REMARK   12  A    between atoms: O_25  and  C_26
REMARK                            x       y       z     vdW  Elec       q    Type
REMARK                         _______ _______ _______ _____ _____    ______ ____
ROOT
ATOM      1  C   UNL     1      47.851 161.604  42.308  0.00  0.00    +0.158 C 
ENDROOT
BRANCH   1   2
ATOM      2  C   UNL     1      48.832 160.732  41.567  0.00  0.00    +0.164 C 
ATOM      3  O   UNL     1      48.479 160.087  40.577  0.00  0.00    -0.292 OA
BRANCH   2   5
ATOM      4  C   UNL     1      50.911 159.580  42.441  0.00  0.00    +0.011 C 
ATOM      5  C   UNL     1      50.261 160.653  41.969  0.00  0.00    +0.047 C 
BRANCH   4  10
ATOM      6  C   UNL     1      49.145 156.708  44.141  0.00  0.00    +0.162 A 
ATOM      7  C   UNL     1      49.290 155.726  43.154  0.00  0.00    +0.158 A 
ATOM      8  C   UNL     1      49.973 155.977  41.971  0.00  0.00    +0.050 A 
ATOM      9  C   UNL     1      50.505 157.245  41.750  0.00  0.00    +0.012 A 
ATOM     10  C   UNL     1      50.349 158.253  42.708  0.00  0.00    -0.021 A 
ATOM     11  C   UNL     1      49.689 157.974  43.916  0.00  0.00    +0.057 A 
BRANCH   6  13
ATOM     12  C   UNL     1      49.209 156.157  46.453  0.00  0.00    +0.277 C 
ATOM     13  O   UNL     1      48.454 156.309  45.256  0.00  0.00    -0.491 OA
ENDBRANCH   6  13
BRANCH   7  14
ATOM     14  O   UNL     1      48.752 154.481  43.339  0.00  0.00    -0.503 OA
ATOM     15  H   UNL     1      48.675 154.384  44.310  0.00  0.00    +0.292 HD
ENDBRANCH   7  14
ENDBRANCH   4  10
ENDBRANCH   2   5
ENDBRANCH   1   2
BRANCH   1  16
ATOM     16  C   UNL     1      47.595 162.968  41.719  0.00  0.00    +0.164 C 
ATOM     17  O   UNL     1      46.491 163.315  41.307  0.00  0.00    -0.292 OA
BRANCH  16  18
ATOM     18  C   UNL     1      48.778 163.874  41.617  0.00  0.00    +0.047 C 
ATOM     19  C   UNL     1      49.447 163.987  40.461  0.00  0.00    +0.011 C 
BRANCH  19  20
ATOM     20  C   UNL     1      50.614 164.864  40.281  0.00  0.00    -0.021 A 
ATOM     21  C   UNL     1      51.923 164.358  40.201  0.00  0.00    +0.057 A 
ATOM     22  C   UNL     1      53.011 165.223  40.061  0.00  0.00    +0.162 A 
ATOM     23  C   UNL     1      52.773 166.600  40.004  0.00  0.00    +0.158 A 
ATOM     24  C   UNL     1      51.490 167.121  40.096  0.00  0.00    +0.050 A 
ATOM     25  C   UNL     1      50.410 166.251  40.242  0.00  0.00    +0.012 A 
BRANCH  23  26
ATOM     26  O   UNL     1      53.817 167.473  39.861  0.00  0.00    -0.503 OA
ATOM     27  H   UNL     1      54.585 167.012  40.249  0.00  0.00    +0.292 HD
ENDBRANCH  23  26
BRANCH  22  28
ATOM     28  O   UNL     1      54.330 164.858  39.972  0.00  0.00    -0.491 OA
ATOM     29  C   UNL     1      54.757 163.797  40.821  0.00  0.00    +0.277 C 
ENDBRANCH  22  28
ENDBRANCH  19  20
ENDBRANCH  16  18
ENDBRANCH   1  16
TORSDOF 10
ENDMDL
MODEL 8
REMARK VINA RESULT:    -7.510      3.277      5.008
REMARK INTER + INTRA:         -12.553
REMARK INTER:                 -10.622
REMARK INTRA:                  -1.931
REMARK UNBOUND:                -1.092
REMARK  Name = 
REMARK  12 active torsions:
REMARK  status: ('A' for Active; 'I' for Inactive)
REMARK    1  A    between atoms: C_1  and  O_2
REMARK    2  A    between atoms: O_2  and  C_3
REMARK    3  A    between atoms: C_4  and  O_27
REMARK    4  A    between atoms: C_7  and  C_9
REMARK    5  A    between atoms: C_10  and  C_11
REMARK    6  A    between atoms: C_11  and  C_13
REMARK    7  A    between atoms: C_13  and  C_14
REMARK    8  A    between atoms: C_14  and  C_16
REMARK    9  A    between atoms: C_17  and  C_18
REMARK   10  A    between atoms: C_20  and  O_25
REMARK   11  A    between atoms: C_21  and  O_24
REMARK   12  A    between atoms: O_25  and  C_26
REMARK                            x       y       z     vdW  Elec       q    Type
REMARK                         _______ _______ _______ _____ _____    ______ ____
ROOT
ATOM      1  C   UNL     1      54.842 160.792  41.140  0.00  0.00    +0.158 C 
ENDROOT
BRANCH   1   2
ATOM      2  C   UNL     1      55.219 162.166  41.633  0.00  0.00    +0.164 C 
ATOM      3  O   UNL     1      55.880 162.929  40.925  0.00  0.00    -0.292 OA
BRANCH   2   5
ATOM      4  C   UNL     1      53.685 163.405  43.222  0.00  0.00    +0.011 C 
ATOM      5  C   UNL     1      54.772 162.666  42.959  0.00  0.00    +0.047 C 
BRANCH   4  10
ATOM      6  C   UNL     1      51.920 165.675  40.774  0.00  0.00    +0.162 A 
ATOM      7  C   UNL     1      50.852 164.846  40.413  0.00  0.00    +0.158 A 
ATOM      8  C   UNL     1      50.687 163.586  40.972  0.00  0.00    +0.050 A 
ATOM      9  C   UNL     1      51.621 163.125  41.897  0.00  0.00    +0.012 A 
ATOM     10  C   UNL     1      52.714 163.923  42.254  0.00  0.00    -0.021 A 
ATOM     11  C   UNL     1      52.847 165.210  41.708  0.00  0.00    +0.057 A 
BRANCH   6  13
ATOM     12  C   UNL     1      51.589 168.025  40.930  0.00  0.00    +0.277 C 
ATOM     13  O   UNL     1      51.945 166.892  40.144  0.00  0.00    -0.491 OA
ENDBRANCH   6  13
BRANCH   7  14
ATOM     14  O   UNL     1      49.937 165.268  39.486  0.00  0.00    -0.503 OA
ATOM     15  H   UNL     1      49.929 166.242  39.569  0.00  0.00    +0.292 HD
ENDBRANCH   7  14
ENDBRANCH   4  10
ENDBRANCH   2   5
ENDBRANCH   1   2
BRANCH   1  16
ATOM     16  C   UNL     1      54.892 159.683  42.159  0.00  0.00    +0.164 C 
ATOM     17  O   UNL     1      55.948 159.236  42.601  0.00  0.00    -0.292 OA
BRANCH  16  18
ATOM     18  C   UNL     1      53.577 159.113  42.578  0.00  0.00    +0.047 C 
ATOM     19  C   UNL     1      52.433 159.632  42.110  0.00  0.00    +0.011 C 
BRANCH  19  20
ATOM     20  C   UNL     1      51.102 159.121  42.469  0.00  0.00    -0.021 A 
ATOM     21  C   UNL     1      49.921 159.791  42.103  0.00  0.00    +0.057 A 
ATOM     22  C   UNL     1      48.674 159.293  42.489  0.00  0.00    +0.162 A 
ATOM     23  C   UNL     1      48.623 158.118  43.245  0.00  0.00    +0.158 A 
ATOM     24  C   UNL     1      49.778 157.449  43.629  0.00  0.00    +0.050 A 
ATOM     25  C   UNL     1      51.018 157.957  43.246  0.00  0.00    +0.012 A 
BRANCH  23  26
ATOM     26  O   UNL     1      47.417 157.601  43.633  0.00  0.00    -0.503 OA
ATOM     27  H   UNL     1      47.637 156.766  44.090  0.00  0.00    +0.292 HD
ENDBRANCH  23  26
BRANCH  22  28
ATOM     28  O   UNL     1      47.455 159.848  42.198  0.00  0.00    -0.491 OA
ATOM     29  C   UNL     1      47.460 161.202  41.757  0.00  0.00    +0.277 C 
ENDBRANCH  22  28
ENDBRANCH  19  20
ENDBRANCH  16  18
ENDBRANCH   1  16
TORSDOF 10
ENDMDL
MODEL 9
REMARK VINA RESULT:    -7.500      2.473      4.239
REMARK INTER + INTRA:         -12.538
REMARK INTER:                 -10.961
REMARK INTRA:                  -1.577
REMARK UNBOUND:                -1.092
REMARK  Name = 
REMARK  12 active torsions:
REMARK  status: ('A' for Active; 'I' for Inactive)
REMARK    1  A    between atoms: C_1  and  O_2
REMARK    2  A    between atoms: O_2  and  C_3
REMARK    3  A    between atoms: C_4  and  O_27
REMARK    4  A    between atoms: C_7  and  C_9
REMARK    5  A    between atoms: C_10  and  C_11
REMARK    6  A    between atoms: C_11  and  C_13
REMARK    7  A    between atoms: C_13  and  C_14
REMARK    8  A    between atoms: C_14  and  C_16
REMARK    9  A    between atoms: C_17  and  C_18
REMARK   10  A    between atoms: C_20  and  O_25
REMARK   11  A    between atoms: C_21  and  O_24
REMARK   12  A    between atoms: O_25  and  C_26
REMARK                            x       y       z     vdW  Elec       q    Type
REMARK                         _______ _______ _______ _____ _____    ______ ____
ROOT
ATOM      1  C   UNL     1      53.534 163.086  40.608  0.00  0.00    +0.158 C 
ENDROOT
BRANCH   1   2
ATOM      2  C   UNL     1      53.643 164.332  41.450  0.00  0.00    +0.164 C 
ATOM      3  O   UNL     1      54.085 165.379  40.970  0.00  0.00    -0.292 OA
BRANCH   2   5
ATOM      4  C   UNL     1      51.926 164.520  43.302  0.00  0.00    +0.011 C 
ATOM      5  C   UNL     1      53.183 164.360  42.863  0.00  0.00    +0.047 C 
BRANCH   4  10
ATOM      6  C   UNL     1      48.716 163.939  41.403  0.00  0.00    +0.162 A 
ATOM      7  C   UNL     1      48.467 165.243  40.959  0.00  0.00    +0.158 A 
ATOM      8  C   UNL     1      49.335 166.288  41.243  0.00  0.00    +0.050 A 
ATOM      9  C   UNL     1      50.472 166.038  42.010  0.00  0.00    +0.012 A 
ATOM     10  C   UNL     1      50.729 164.748  42.490  0.00  0.00    -0.021 A 
ATOM     11  C   UNL     1      49.860 163.695  42.162  0.00  0.00    +0.057 A 
BRANCH   6  13
ATOM     12  C   UNL     1      46.933 162.515  42.072  0.00  0.00    +0.277 C 
ATOM     13  O   UNL     1      47.773 163.014  41.037  0.00  0.00    -0.491 OA
ENDBRANCH   6  13
BRANCH   7  14
ATOM     14  O   UNL     1      47.343 165.517  40.226  0.00  0.00    -0.503 OA
ATOM     15  H   UNL     1      46.606 165.137  40.747  0.00  0.00    +0.292 HD
ENDBRANCH   7  14
ENDBRANCH   4  10
ENDBRANCH   2   5
ENDBRANCH   1   2
BRANCH   1  16
ATOM     16  C   UNL     1      53.605 161.775  41.348  0.00  0.00    +0.164 C 
ATOM     17  O   UNL     1      54.666 161.198  41.572  0.00  0.00    -0.292 OA
BRANCH  16  18
ATOM     18  C   UNL     1      52.300 161.181  41.762  0.00  0.00    +0.047 C 
ATOM     19  C   UNL     1      52.222 159.886  42.104  0.00  0.00    +0.011 C 
BRANCH  19  20
ATOM     20  C   UNL     1      50.976 159.232  42.530  0.00  0.00    -0.021 A 
ATOM     21  C   UNL     1      50.976 158.067  43.317  0.00  0.00    +0.057 A 
ATOM     22  C   UNL     1      49.773 157.454  43.677  0.00  0.00    +0.162 A 
ATOM     23  C   UNL     1      48.572 158.020  43.238  0.00  0.00    +0.158 A 
ATOM     24  C   UNL     1      48.551 159.161  42.447  0.00  0.00    +0.050 A 
ATOM     25  C   UNL     1      49.756 159.762  42.087  0.00  0.00    +0.012 A 
BRANCH  23  26
ATOM     26  O   UNL     1      47.377 157.447  43.579  0.00  0.00    -0.503 OA
ATOM     27  H   UNL     1      47.245 157.681  44.517  0.00  0.00    +0.292 HD
ENDBRANCH  23  26
BRANCH  22  28
ATOM     28  O   UNL     1      49.637 156.322  44.438  0.00  0.00    -0.491 OA
ATOM     29  C   UNL     1      49.806 155.078  43.766  0.00  0.00    +0.277 C 
ENDBRANCH  22  28
ENDBRANCH  19  20
ENDBRANCH  16  18
ENDBRANCH   1  16
TORSDOF 10
ENDMDL
