MODEL 1
REMARK VINA RESULT:    -8.844      0.000      0.000
REMARK INTER + INTRA:         -12.512
REMARK INTER:                 -11.947
REMARK INTRA:                  -0.565
REMARK UNBOUND:                -0.565
REMARK  Name = 
REMARK  8 active torsions:
REMARK  status: ('A' for Active; 'I' for Inactive)
REMARK    1  A    between atoms: C_1  and  O_2
REMARK    2  A    between atoms: O_2  and  C_3
REMARK    3  A    between atoms: C_8  and  O_9
REMARK    4  A    between atoms: O_9  and  C_10
REMARK    5  A    between atoms: C_13  and  C_16
REMARK    6  A    between atoms: C_16  and  C_17
REMARK    7  A    between atoms: N_20  and  C_23
REMARK    8  A    between atoms: C_23  and  C_24
REMARK                            x       y       z     vdW  Elec       q    Type
REMARK                         _______ _______ _______ _____ _____    ______ ____
ROOT
ATOM      1  C   UNL     1      49.138 158.413  42.532  0.00  0.00    +0.162 A 
ATOM      2  C   UNL     1      48.204 159.397  42.180  0.00  0.00    +0.053 A 
ATOM      3  C   UNL     1      48.621 160.681  41.793  0.00  0.00    -0.033 A 
ATOM      4  C   UNL     1      49.988 160.978  41.787  0.00  0.00    +0.025 A 
ATOM      5  C   UNL     1      50.929 160.000  42.135  0.00  0.00    +0.061 A 
ATOM      6  C   UNL     1      50.513 158.717  42.505  0.00  0.00    +0.162 A 
ATOM      7  C   UNL     1      50.466 162.339  41.414  0.00  0.00    +0.167 C 
ATOM      8  O   UNL     1      51.673 162.569  41.396  0.00  0.00    -0.292 OA
ATOM      9  C   UNL     1      49.419 163.419  41.134  0.00  0.00    +0.061 C 
ATOM     10  C   UNL     1      48.169 162.788  40.518  0.00  0.00    +0.016 C 
ATOM     11  C   UNL     1      47.592 161.718  41.438  0.00  0.00    +0.036 C 
ENDROOT
BRANCH   1  13
ATOM     12  C   UNL     1      48.443 156.919  44.267  0.00  0.00    +0.277 C 
ATOM     13  O   UNL     1      48.811 157.135  42.913  0.00  0.00    -0.491 OA
ENDBRANCH   1  13
BRANCH   6  14
ATOM     14  O   UNL     1      51.363 157.699  42.862  0.00  0.00    -0.491 OA
ATOM     15  C   UNL     1      52.686 158.049  43.244  0.00  0.00    +0.277 C 
ENDBRANCH   6  14
BRANCH   9  16
ATOM     16  C   UNL     1      50.028 164.513  40.229  0.00  0.00    +0.015 C 
BRANCH  16  17
ATOM     17  C   UNL     1      49.540 165.953  40.491  0.00  0.00    -0.008 C 
ATOM     18  C   UNL     1      50.650 166.802  41.144  0.00  0.00    +0.019 C 
ATOM     19  C   UNL     1      50.507 166.864  42.666  0.00  0.00    +0.085 C 
ATOM     20  N   UNL     1      49.219 167.413  43.117  0.00  0.00    -0.298 NA
ATOM     21  C   UNL     1      48.144 167.284  42.127  0.00  0.00    +0.085 C 
ATOM     22  C   UNL     1      48.255 165.982  41.338  0.00  0.00    +0.019 C 
BRANCH  20  23
ATOM     23  C   UNL     1      49.319 168.800  43.596  0.00  0.00    +0.119 C 
BRANCH  23  24
ATOM     24  C   UNL     1      48.094 169.272  44.354  0.00  0.00    -0.033 A 
ATOM     25  C   UNL     1      47.590 168.533  45.434  0.00  0.00    +0.005 A 
ATOM     26  C   UNL     1      46.447 168.956  46.115  0.00  0.00    +0.000 A 
ATOM     27  C   UNL     1      45.791 170.119  45.719  0.00  0.00    +0.000 A 
ATOM     28  C   UNL     1      46.275 170.859  44.641  0.00  0.00    +0.000 A 
ATOM     29  C   UNL     1      47.418 170.436  43.959  0.00  0.00    +0.005 A 
ENDBRANCH  23  24
ENDBRANCH  20  23
ENDBRANCH  16  17
ENDBRANCH   9  16
TORSDOF 6
ENDMDL
MODEL 2
REMARK VINA RESULT:    -8.659      2.396      4.970
REMARK INTER + INTRA:         -12.261
REMARK INTER:                 -11.585
REMARK INTRA:                  -0.675
REMARK UNBOUND:                -0.565
REMARK  Name = 
REMARK  8 active torsions:
REMARK  status: ('A' for Active; 'I' for Inactive)
REMARK    1  A    between atoms: C_1  and  O_2
REMARK    2  A    between atoms: O_2  and  C_3
REMARK    3  A    between atoms: C_8  and  O_9
REMARK    4  A    between atoms: O_9  and  C_10
REMARK    5  A    between atoms: C_13  and  C_16
REMARK    6  A    between atoms: C_16  and  C_17
REMARK    7  A    between atoms: N_20  and  C_23
REMARK    8  A    between atoms: C_23  and  C_24
REMARK                            x       y       z     vdW  Elec       q    Type
REMARK                         _______ _______ _______ _____ _____    ______ ____
ROOT
ATOM      1  C   UNL     1      51.260 154.348  43.636  0.00  0.00    +0.162 A 
ATOM      2  C   UNL     1      51.837 155.466  43.019  0.00  0.00    +0.053 A 
ATOM      3  C   UNL     1      51.089 156.633  42.797  0.00  0.00    -0.033 A 
ATOM      4  C   UNL     1      49.743 156.660  43.178  0.00  0.00    +0.025 A 
ATOM      5  C   UNL     1      49.158 155.547  43.797  0.00  0.00    +0.061 A 
ATOM      6  C   UNL     1      49.909 154.391  44.031  0.00  0.00    +0.162 A 
ATOM      7  C   UNL     1      48.908 157.868  42.928  0.00  0.00    +0.167 C 
ATOM      8  O   UNL     1      47.734 157.874  43.292  0.00  0.00    -0.292 OA
ATOM      9  C   UNL     1      49.538 159.034  42.163  0.00  0.00    +0.061 C 
ATOM     10  C   UNL     1      51.034 159.116  42.474  0.00  0.00    +0.016 C 
ATOM     11  C   UNL     1      51.734 157.809  42.118  0.00  0.00    +0.036 C 
ENDROOT
BRANCH   1  13
ATOM     12  C   UNL     1      53.320 153.245  44.152  0.00  0.00    +0.277 C 
ATOM     13  O   UNL     1      51.927 153.175  43.893  0.00  0.00    -0.491 OA
ENDBRANCH   1  13
BRANCH   6  14
ATOM     14  O   UNL     1      49.420 153.256  44.630  0.00  0.00    -0.491 OA
ATOM     15  C   UNL     1      49.221 153.287  46.037  0.00  0.00    +0.277 C 
ENDBRANCH   6  14
BRANCH   9  16
ATOM     16  C   UNL     1      48.796 160.344  42.508  0.00  0.00    +0.015 C 
BRANCH  16  17
ATOM     17  C   UNL     1      48.601 161.335  41.340  0.00  0.00    -0.008 C 
ATOM     18  C   UNL     1      49.731 162.385  41.312  0.00  0.00    +0.019 C 
ATOM     19  C   UNL     1      49.327 163.685  42.007  0.00  0.00    +0.085 C 
ATOM     20  N   UNL     1      48.132 164.319  41.428  0.00  0.00    -0.298 NA
ATOM     21  C   UNL     1      47.258 163.384  40.711  0.00  0.00    +0.085 C 
ATOM     22  C   UNL     1      47.221 162.015  41.386  0.00  0.00    +0.019 C 
BRANCH  20  23
ATOM     23  C   UNL     1      48.448 165.483  40.585  0.00  0.00    +0.119 C 
BRANCH  23  24
ATOM     24  C   UNL     1      49.121 166.614  41.336  0.00  0.00    -0.033 A 
ATOM     25  C   UNL     1      48.404 167.384  42.265  0.00  0.00    +0.005 A 
ATOM     26  C   UNL     1      49.020 168.441  42.937  0.00  0.00    +0.000 A 
ATOM     27  C   UNL     1      50.355 168.746  42.683  0.00  0.00    +0.000 A 
ATOM     28  C   UNL     1      51.076 167.996  41.756  0.00  0.00    +0.000 A 
ATOM     29  C   UNL     1      50.462 166.938  41.083  0.00  0.00    +0.005 A 
ENDBRANCH  23  24
ENDBRANCH  20  23
ENDBRANCH  16  17
ENDBRANCH   9  16
TORSDOF 6
ENDMDL
MODEL 3
REMARK VINA RESULT:    -8.367      3.121      9.800
REMARK INTER + INTRA:         -11.867
REMARK INTER:                 -11.096
REMARK INTRA:                  -0.771
REMARK UNBOUND:                -0.565
REMARK  Name = 
REMARK  8 active torsions:
REMARK  status: ('A' for Active; 'I' for Inactive)
REMARK    1  A    between atoms: C_1  and  O_2
REMARK    2  A    between atoms: O_2  and  C_3
REMARK    3  A    between atoms: C_8  and  O_9
REMARK    4  A    between atoms: O_9  and  C_10
REMARK    5  A    between atoms: C_13  and  C_16
REMARK    6  A    between atoms: C_16  and  C_17
REMARK    7  A    between atoms: N_20  and  C_23
REMARK    8  A    between atoms: C_23  and  C_24
REMARK                            x       y       z     vdW  Elec       q    Type
REMARK                         _______ _______ _______ _____ _____    ______ ____
ROOT
ATOM      1  C   UNL     1      51.075 168.664  42.658  0.00  0.00    +0.162 A 
ATOM      2  C   UNL     1      50.915 167.975  41.447  0.00  0.00    +0.053 A 
ATOM      3  C   UNL     1      50.490 166.637  41.430  0.00  0.00    -0.033 A 
ATOM      4  C   UNL     1      50.252 165.984  42.644  0.00  0.00    +0.025 A 
ATOM      5  C   UNL     1      50.408 166.665  43.859  0.00  0.00    +0.061 A 
ATOM      6  C   UNL     1      50.816 168.002  43.874  0.00  0.00    +0.162 A 
ATOM      7  C   UNL     1      49.833 164.554  42.666  0.00  0.00    +0.167 C 
ATOM      8  O   UNL     1      49.610 164.010  43.746  0.00  0.00    -0.292 OA
ATOM      9  C   UNL     1      49.765 163.802  41.336  0.00  0.00    +0.061 C 
ATOM     10  C   UNL     1      49.363 164.760  40.213  0.00  0.00    +0.016 C 
ATOM     11  C   UNL     1      50.345 165.923  40.115  0.00  0.00    +0.036 C 
ENDROOT
BRANCH   1  13
ATOM     12  C   UNL     1      51.432 170.773  41.586  0.00  0.00    +0.277 C 
ATOM     13  O   UNL     1      51.478 169.972  42.757  0.00  0.00    -0.491 OA
ENDBRANCH   1  13
BRANCH   6  14
ATOM     14  O   UNL     1      50.994 168.746  45.014  0.00  0.00    -0.491 OA
ATOM     15  C   UNL     1      49.842 169.051  45.789  0.00  0.00    +0.277 C 
ENDBRANCH   6  14
BRANCH   9  16
ATOM     16  C   UNL     1      48.794 162.608  41.462  0.00  0.00    +0.015 C 
BRANCH  16  17
ATOM     17  C   UNL     1      49.384 161.220  41.133  0.00  0.00    -0.008 C 
ATOM     18  C   UNL     1      48.272 160.157  41.032  0.00  0.00    +0.019 C 
ATOM     19  C   UNL     1      48.103 159.375  42.336  0.00  0.00    +0.085 C 
ATOM     20  N   UNL     1      49.326 158.684  42.773  0.00  0.00    -0.298 NA
ATOM     21  C   UNL     1      50.560 159.276  42.243  0.00  0.00    +0.085 C 
ATOM     22  C   UNL     1      50.460 160.796  42.148  0.00  0.00    +0.019 C 
BRANCH  20  23
ATOM     23  C   UNL     1      49.294 157.236  42.514  0.00  0.00    +0.119 C 
BRANCH  23  24
ATOM     24  C   UNL     1      49.234 156.393  43.772  0.00  0.00    -0.033 A 
ATOM     25  C   UNL     1      48.949 156.979  45.015  0.00  0.00    +0.005 A 
ATOM     26  C   UNL     1      48.918 156.206  46.176  0.00  0.00    +0.000 A 
ATOM     27  C   UNL     1      49.180 154.839  46.110  0.00  0.00    +0.000 A 
ATOM     28  C   UNL     1      49.475 154.245  44.884  0.00  0.00    +0.000 A 
ATOM     29  C   UNL     1      49.506 155.018  43.722  0.00  0.00    +0.005 A 
ENDBRANCH  23  24
ENDBRANCH  20  23
ENDBRANCH  16  17
ENDBRANCH   9  16
TORSDOF 6
ENDMDL
MODEL 4
REMARK VINA RESULT:    -8.208      1.745      2.419
REMARK INTER + INTRA:         -11.653
REMARK INTER:                 -10.874
REMARK INTRA:                  -0.779
REMARK UNBOUND:                -0.565
REMARK  Name = 
REMARK  8 active torsions:
REMARK  status: ('A' for Active; 'I' for Inactive)
REMARK    1  A    between atoms: C_1  and  O_2
REMARK    2  A    between atoms: O_2  and  C_3
REMARK    3  A    between atoms: C_8  and  O_9
REMARK    4  A    between atoms: O_9  and  C_10
REMARK    5  A    between atoms: C_13  and  C_16
REMARK    6  A    between atoms: C_16  and  C_17
REMARK    7  A    between atoms: N_20  and  C_23
REMARK    8  A    between atoms: C_23  and  C_24
REMARK                            x       y       z     vdW  Elec       q    Type
REMARK                         _______ _______ _______ _____ _____    ______ ____
ROOT
ATOM      1  C   UNL     1      49.115 158.285  42.862  0.00  0.00    +0.162 A 
ATOM      2  C   UNL     1      48.082 159.144  42.463  0.00  0.00    +0.053 A 
ATOM      3  C   UNL     1      48.363 160.412  41.930  0.00  0.00    -0.033 A 
ATOM      4  C   UNL     1      49.696 160.824  41.825  0.00  0.00    +0.025 A 
ATOM      5  C   UNL     1      50.736 159.971  42.219  0.00  0.00    +0.061 A 
ATOM      6  C   UNL     1      50.455 158.703  42.736  0.00  0.00    +0.162 A 
ATOM      7  C   UNL     1      50.032 162.175  41.295  0.00  0.00    +0.167 C 
ATOM      8  O   UNL     1      51.212 162.505  41.193  0.00  0.00    -0.292 OA
ATOM      9  C   UNL     1      48.881 163.126  40.963  0.00  0.00    +0.061 C 
ATOM     10  C   UNL     1      47.668 162.330  40.477  0.00  0.00    +0.016 C 
ATOM     11  C   UNL     1      47.230 161.314  41.528  0.00  0.00    +0.036 C 
ENDROOT
BRANCH   1  13
ATOM     12  C   UNL     1      48.464 156.931  44.724  0.00  0.00    +0.277 C 
ATOM     13  O   UNL     1      48.921 157.030  43.385  0.00  0.00    -0.491 OA
ENDBRANCH   1  13
BRANCH   6  14
ATOM     14  O   UNL     1      51.407 157.804  43.147  0.00  0.00    -0.491 OA
ATOM     15  C   UNL     1      52.768 158.120  42.885  0.00  0.00    +0.277 C 
ENDBRANCH   6  14
BRANCH   9  16
ATOM     16  C   UNL     1      49.349 164.169  39.925  0.00  0.00    +0.015 C 
BRANCH  16  17
ATOM     17  C   UNL     1      49.458 165.623  40.431  0.00  0.00    -0.008 C 
ATOM     18  C   UNL     1      50.826 165.874  41.098  0.00  0.00    +0.019 C 
ATOM     19  C   UNL     1      50.761 165.732  42.619  0.00  0.00    +0.085 C 
ATOM     20  N   UNL     1      49.794 166.640  43.257  0.00  0.00    -0.298 NA
ATOM     21  C   UNL     1      48.725 167.089  42.358  0.00  0.00    +0.085 C 
ATOM     22  C   UNL     1      48.306 165.990  41.385  0.00  0.00    +0.019 C 
BRANCH  20  23
ATOM     23  C   UNL     1      50.432 167.790  43.918  0.00  0.00    +0.119 C 
BRANCH  23  24
ATOM     24  C   UNL     1      50.587 168.999  43.018  0.00  0.00    -0.033 A 
ATOM     25  C   UNL     1      51.680 169.108  42.144  0.00  0.00    +0.005 A 
ATOM     26  C   UNL     1      51.834 170.234  41.334  0.00  0.00    +0.000 A 
ATOM     27  C   UNL     1      50.902 171.268  41.393  0.00  0.00    +0.000 A 
ATOM     28  C   UNL     1      49.818 171.178  42.264  0.00  0.00    +0.000 A 
ATOM     29  C   UNL     1      49.662 170.052  43.074  0.00  0.00    +0.005 A 
ENDBRANCH  23  24
ENDBRANCH  20  23
ENDBRANCH  16  17
ENDBRANCH   9  16
TORSDOF 6
ENDMDL
MODEL 5
REMARK VINA RESULT:    -7.989      3.817     10.025
REMARK INTER + INTRA:         -11.356
REMARK INTER:                 -10.722
REMARK INTRA:                  -0.634
REMARK UNBOUND:                -0.565
REMARK  Name = 
REMARK  8 active torsions:
REMARK  status: ('A' for Active; 'I' for Inactive)
REMARK    1  A    between atoms: C_1  and  O_2
REMARK    2  A    between atoms: O_2  and  C_3
REMARK    3  A    between atoms: C_8  and  O_9
REMARK    4  A    between atoms: O_9  and  C_10
REMARK    5  A    between atoms: C_13  and  C_16
REMARK    6  A    between atoms: C_16  and  C_17
REMARK    7  A    between atoms: N_20  and  C_23
REMARK    8  A    between atoms: C_23  and  C_24
REMARK                            x       y       z     vdW  Elec       q    Type
REMARK                         _______ _______ _______ _____ _____    ______ ____
ROOT
ATOM      1  C   UNL     1      53.375 167.325  40.558  0.00  0.00    +0.162 A 
ATOM      2  C   UNL     1      53.722 165.969  40.488  0.00  0.00    +0.053 A 
ATOM      3  C   UNL     1      52.810 164.970  40.864  0.00  0.00    -0.033 A 
ATOM      4  C   UNL     1      51.549 165.347  41.339  0.00  0.00    +0.025 A 
ATOM      5  C   UNL     1      51.192 166.700  41.412  0.00  0.00    +0.061 A 
ATOM      6  C   UNL     1      52.096 167.693  41.022  0.00  0.00    +0.162 A 
ATOM      7  C   UNL     1      50.567 164.316  41.780  0.00  0.00    +0.167 C 
ATOM      8  O   UNL     1      49.458 164.672  42.173  0.00  0.00    -0.292 OA
ATOM      9  C   UNL     1      51.011 162.852  41.786  0.00  0.00    +0.061 C 
ATOM     10  C   UNL     1      52.013 162.605  40.656  0.00  0.00    +0.016 C 
ATOM     11  C   UNL     1      53.221 163.526  40.791  0.00  0.00    +0.036 C 
ENDROOT
BRANCH   1  13
ATOM     12  C   UNL     1      55.568 168.280  40.595  0.00  0.00    +0.277 C 
ATOM     13  O   UNL     1      54.207 168.358  40.203  0.00  0.00    -0.491 OA
ENDBRANCH   1  13
BRANCH   6  14
ATOM     14  O   UNL     1      51.833 169.039  41.060  0.00  0.00    -0.491 OA
ATOM     15  C   UNL     1      50.825 169.489  41.955  0.00  0.00    +0.277 C 
ENDBRANCH   6  14
BRANCH   9  16
ATOM     16  C   UNL     1      49.775 161.932  41.683  0.00  0.00    +0.015 C 
BRANCH  16  17
ATOM     17  C   UNL     1      50.067 160.435  41.445  0.00  0.00    -0.008 C 
ATOM     18  C   UNL     1      48.760 159.617  41.413  0.00  0.00    +0.019 C 
ATOM     19  C   UNL     1      48.452 158.970  42.765  0.00  0.00    +0.085 C 
ATOM     20  N   UNL     1      49.515 158.073  43.247  0.00  0.00    -0.298 NA
ATOM     21  C   UNL     1      50.836 158.367  42.680  0.00  0.00    +0.085 C 
ATOM     22  C   UNL     1      51.047 159.866  42.486  0.00  0.00    +0.019 C 
BRANCH  20  23
ATOM     23  C   UNL     1      49.186 156.649  43.082  0.00  0.00    +0.119 C 
BRANCH  23  24
ATOM     24  C   UNL     1      49.241 155.858  44.374  0.00  0.00    -0.033 A 
ATOM     25  C   UNL     1      49.405 154.464  44.356  0.00  0.00    +0.005 A 
ATOM     26  C   UNL     1      49.431 153.736  45.546  0.00  0.00    +0.000 A 
ATOM     27  C   UNL     1      49.285 154.390  46.767  0.00  0.00    +0.000 A 
ATOM     28  C   UNL     1      49.111 155.772  46.800  0.00  0.00    +0.000 A 
ATOM     29  C   UNL     1      49.085 156.502  45.610  0.00  0.00    +0.005 A 
ENDBRANCH  23  24
ENDBRANCH  20  23
ENDBRANCH  16  17
ENDBRANCH   9  16
TORSDOF 6
ENDMDL
MODEL 6
REMARK VINA RESULT:    -7.956      4.338      9.895
REMARK INTER + INTRA:         -11.312
REMARK INTER:                 -10.604
REMARK INTRA:                  -0.707
REMARK UNBOUND:                -0.565
REMARK  Name = 
REMARK  8 active torsions:
REMARK  status: ('A' for Active; 'I' for Inactive)
REMARK    1  A    between atoms: C_1  and  O_2
REMARK    2  A    between atoms: O_2  and  C_3
REMARK    3  A    between atoms: C_8  and  O_9
REMARK    4  A    between atoms: O_9  and  C_10
REMARK    5  A    between atoms: C_13  and  C_16
REMARK    6  A    between atoms: C_16  and  C_17
REMARK    7  A    between atoms: N_20  and  C_23
REMARK    8  A    between atoms: C_23  and  C_24
REMARK                            x       y       z     vdW  Elec       q    Type
REMARK                         _______ _______ _______ _____ _____    ______ ____
ROOT
ATOM      1  C   UNL     1      53.258 168.158  40.228  0.00  0.00    +0.162 A 
ATOM      2  C   UNL     1      51.991 167.655  39.903  0.00  0.00    +0.053 A 
ATOM      3  C   UNL     1      51.586 166.384  40.341  0.00  0.00    -0.033 A 
ATOM      4  C   UNL     1      52.478 165.607  41.089  0.00  0.00    +0.025 A 
ATOM      5  C   UNL     1      53.746 166.103  41.419  0.00  0.00    +0.061 A 
ATOM      6  C   UNL     1      54.142 167.375  40.996  0.00  0.00    +0.162 A 
ATOM      7  C   UNL     1      52.096 164.240  41.542  0.00  0.00    +0.167 C 
ATOM      8  O   UNL     1      52.890 163.586  42.215  0.00  0.00    -0.292 OA
ATOM      9  C   UNL     1      50.747 163.680  41.087  0.00  0.00    +0.061 C 
ATOM     10  C   UNL     1      49.730 164.815  40.947  0.00  0.00    +0.016 C 
ATOM     11  C   UNL     1      50.226 165.868  39.961  0.00  0.00    +0.036 C 
ENDROOT
BRANCH   1  13
ATOM     12  C   UNL     1      53.053 170.055  38.784  0.00  0.00    +0.277 C 
ATOM     13  O   UNL     1      53.723 169.392  39.844  0.00  0.00    -0.491 OA
ENDBRANCH   1  13
BRANCH   6  14
ATOM     14  O   UNL     1      55.363 167.940  41.272  0.00  0.00    -0.491 OA
ATOM     15  C   UNL     1      56.520 167.142  41.060  0.00  0.00    +0.277 C 
ENDBRANCH   6  14
BRANCH   9  16
ATOM     16  C   UNL     1      50.275 162.591  42.075  0.00  0.00    +0.015 C 
BRANCH  16  17
ATOM     17  C   UNL     1      50.309 161.141  41.547  0.00  0.00    -0.008 C 
ATOM     18  C   UNL     1      48.930 160.467  41.697  0.00  0.00    +0.019 C 
ATOM     19  C   UNL     1      48.837 159.619  42.966  0.00  0.00    +0.085 C 
ATOM     20  N   UNL     1      49.851 158.555  43.042  0.00  0.00    -0.298 NA
ATOM     21  C   UNL     1      51.046 158.821  42.234  0.00  0.00    +0.085 C 
ATOM     22  C   UNL     1      51.406 160.305  42.230  0.00  0.00    +0.019 C 
BRANCH  20  23
ATOM     23  C   UNL     1      49.309 157.220  42.741  0.00  0.00    +0.119 C 
BRANCH  23  24
ATOM     24  C   UNL     1      49.301 156.284  43.933  0.00  0.00    -0.033 A 
ATOM     25  C   UNL     1      49.055 156.771  45.226  0.00  0.00    +0.005 A 
ATOM     26  C   UNL     1      49.072 155.911  46.325  0.00  0.00    +0.000 A 
ATOM     27  C   UNL     1      49.344 154.556  46.146  0.00  0.00    +0.000 A 
ATOM     28  C   UNL     1      49.601 154.061  44.869  0.00  0.00    +0.000 A 
ATOM     29  C   UNL     1      49.583 154.920  43.769  0.00  0.00    +0.005 A 
ENDBRANCH  23  24
ENDBRANCH  20  23
ENDBRANCH  16  17
ENDBRANCH   9  16
TORSDOF 6
ENDMDL
MODEL 7
REMARK VINA RESULT:    -7.901      4.939     10.237
REMARK INTER + INTRA:         -11.237
REMARK INTER:                 -11.127
REMARK INTRA:                  -0.110
REMARK UNBOUND:                -0.565
REMARK  Name = 
REMARK  8 active torsions:
REMARK  status: ('A' for Active; 'I' for Inactive)
REMARK    1  A    between atoms: C_1  and  O_2
REMARK    2  A    between atoms: O_2  and  C_3
REMARK    3  A    between atoms: C_8  and  O_9
REMARK    4  A    between atoms: O_9  and  C_10
REMARK    5  A    between atoms: C_13  and  C_16
REMARK    6  A    between atoms: C_16  and  C_17
REMARK    7  A    between atoms: N_20  and  C_23
REMARK    8  A    between atoms: C_23  and  C_24
REMARK                            x       y       z     vdW  Elec       q    Type
REMARK                         _______ _______ _______ _____ _____    ______ ____
ROOT
ATOM      1  C   UNL     1      48.343 162.040  41.016  0.00  0.00    +0.162 A 
ATOM      2  C   UNL     1      48.679 160.713  41.316  0.00  0.00    +0.053 A 
ATOM      3  C   UNL     1      49.995 160.361  41.656  0.00  0.00    -0.033 A 
ATOM      4  C   UNL     1      50.982 161.354  41.667  0.00  0.00    +0.025 A 
ATOM      5  C   UNL     1      50.654 162.683  41.370  0.00  0.00    +0.061 A 
ATOM      6  C   UNL     1      49.340 163.034  41.046  0.00  0.00    +0.162 A 
ATOM      7  C   UNL     1      52.396 161.013  41.990  0.00  0.00    +0.167 C 
ATOM      8  O   UNL     1      53.239 161.907  42.013  0.00  0.00    -0.292 OA
ATOM      9  C   UNL     1      52.750 159.542  42.214  0.00  0.00    +0.061 C 
ATOM     10  C   UNL     1      51.562 158.807  42.840  0.00  0.00    +0.016 C 
ATOM     11  C   UNL     1      50.325 158.926  41.956  0.00  0.00    +0.036 C 
ENDROOT
BRANCH   1  13
ATOM     12  C   UNL     1      46.226 162.898  41.729  0.00  0.00    +0.277 C 
ATOM     13  O   UNL     1      47.080 162.462  40.682  0.00  0.00    -0.491 OA
ENDBRANCH   1  13
BRANCH   6  14
ATOM     14  O   UNL     1      48.930 164.308  40.742  0.00  0.00    -0.491 OA
ATOM     15  C   UNL     1      49.857 165.159  40.080  0.00  0.00    +0.277 C 
ENDBRANCH   6  14
BRANCH   9  16
ATOM     16  C   UNL     1      54.024 159.439  43.081  0.00  0.00    +0.015 C 
BRANCH  16  17
ATOM     17  C   UNL     1      55.343 159.848  42.392  0.00  0.00    -0.008 C 
ATOM     18  C   UNL     1      55.824 158.748  41.424  0.00  0.00    +0.019 C 
ATOM     19  C   UNL     1      56.866 157.831  42.066  0.00  0.00    +0.085 C 
ATOM     20  N   UNL     1      58.062 158.540  42.546  0.00  0.00    -0.298 NA
ATOM     21  C   UNL     1      57.831 159.961  42.830  0.00  0.00    +0.085 C 
ATOM     22  C   UNL     1      56.440 160.202  43.412  0.00  0.00    +0.019 C 
BRANCH  20  23
ATOM     23  C   UNL     1      59.227 158.372  41.663  0.00  0.00    +0.119 C 
BRANCH  23  24
ATOM     24  C   UNL     1      58.991 158.857  40.246  0.00  0.00    -0.033 A 
ATOM     25  C   UNL     1      58.697 157.950  39.217  0.00  0.00    +0.005 A 
ATOM     26  C   UNL     1      58.504 158.396  37.909  0.00  0.00    +0.000 A 
ATOM     27  C   UNL     1      58.611 159.753  37.613  0.00  0.00    +0.000 A 
ATOM     28  C   UNL     1      58.913 160.664  38.623  0.00  0.00    +0.000 A 
ATOM     29  C   UNL     1      59.106 160.219  39.932  0.00  0.00    +0.005 A 
ENDBRANCH  23  24
ENDBRANCH  20  23
ENDBRANCH  16  17
ENDBRANCH   9  16
TORSDOF 6
ENDMDL
MODEL 8
REMARK VINA RESULT:    -7.895      4.027      9.227
REMARK INTER + INTRA:         -11.229
REMARK INTER:                 -10.901
REMARK INTRA:                  -0.328
REMARK UNBOUND:                -0.565
REMARK  Name = 
REMARK  8 active torsions:
REMARK  status: ('A' for Active; 'I' for Inactive)
REMARK    1  A    between atoms: C_1  and  O_2
REMARK    2  A    between atoms: O_2  and  C_3
REMARK    3  A    between atoms: C_8  and  O_9
REMARK    4  A    between atoms: O_9  and  C_10
REMARK    5  A    between atoms: C_13  and  C_16
REMARK    6  A    between atoms: C_16  and  C_17
REMARK    7  A    between atoms: N_20  and  C_23
REMARK    8  A    between atoms: C_23  and  C_24
REMARK                            x       y       z     vdW  Elec       q    Type
REMARK                         _______ _______ _______ _____ _____    ______ ____
ROOT
ATOM      1  C   UNL     1      52.784 168.648  41.290  0.00  0.00    +0.162 A 
ATOM      2  C   UNL     1      52.558 167.362  40.779  0.00  0.00    +0.053 A 
ATOM      3  C   UNL     1      51.293 166.760  40.874  0.00  0.00    -0.033 A 
ATOM      4  C   UNL     1      50.258 167.452  41.512  0.00  0.00    +0.025 A 
ATOM      5  C   UNL     1      50.474 168.738  42.024  0.00  0.00    +0.061 A 
ATOM      6  C   UNL     1      51.730 169.343  41.915  0.00  0.00    +0.162 A 
ATOM      7  C   UNL     1      48.911 166.832  41.661  0.00  0.00    +0.167 C 
ATOM      8  O   UNL     1      48.013 167.469  42.207  0.00  0.00    -0.292 OA
ATOM      9  C   UNL     1      48.725 165.390  41.184  0.00  0.00    +0.061 C 
ATOM     10  C   UNL     1      49.628 165.117  39.980  0.00  0.00    +0.016 C 
ATOM     11  C   UNL     1      51.090 165.373  40.330  0.00  0.00    +0.036 C 
ENDROOT
BRANCH   1  13
ATOM     12  C   UNL     1      54.524 169.593  39.948  0.00  0.00    +0.277 C 
ATOM     13  O   UNL     1      53.987 169.306  41.230  0.00  0.00    -0.491 OA
ENDBRANCH   1  13
BRANCH   6  14
ATOM     14  O   UNL     1      52.031 170.596  42.387  0.00  0.00    -0.491 OA
ATOM     15  C   UNL     1      51.150 171.658  42.045  0.00  0.00    +0.277 C 
ENDBRANCH   6  14
BRANCH   9  16
ATOM     16  C   UNL     1      47.235 165.135  40.867  0.00  0.00    +0.015 C 
BRANCH  16  17
ATOM     17  C   UNL     1      46.803 163.655  40.802  0.00  0.00    -0.008 C 
ATOM     18  C   UNL     1      46.740 163.036  42.214  0.00  0.00    +0.019 C 
ATOM     19  C   UNL     1      48.017 162.272  42.566  0.00  0.00    +0.085 C 
ATOM     20  N   UNL     1      48.332 161.183  41.629  0.00  0.00    -0.298 NA
ATOM     21  C   UNL     1      47.738 161.359  40.298  0.00  0.00    +0.085 C 
ATOM     22  C   UNL     1      47.716 162.827  39.880  0.00  0.00    +0.019 C 
BRANCH  20  23
ATOM     23  C   UNL     1      48.013 159.850  42.165  0.00  0.00    +0.119 C 
BRANCH  23  24
ATOM     24  C   UNL     1      49.227 159.084  42.652  0.00  0.00    -0.033 A 
ATOM     25  C   UNL     1      49.099 158.084  43.629  0.00  0.00    +0.005 A 
ATOM     26  C   UNL     1      50.221 157.397  44.094  0.00  0.00    +0.000 A 
ATOM     27  C   UNL     1      51.484 157.706  43.595  0.00  0.00    +0.000 A 
ATOM     28  C   UNL     1      51.627 158.704  42.633  0.00  0.00    +0.000 A 
ATOM     29  C   UNL     1      50.506 159.392  42.166  0.00  0.00    +0.005 A 
ENDBRANCH  23  24
ENDBRANCH  20  23
ENDBRANCH  16  17
ENDBRANCH   9  16
TORSDOF 6
ENDMDL
MODEL 9
REMARK VINA RESULT:    -7.672      3.444      9.319
REMARK INTER + INTRA:         -10.928
REMARK INTER:                 -10.131
REMARK INTRA:                  -0.797
REMARK UNBOUND:                -0.565
REMARK  Name = 
REMARK  8 active torsions:
REMARK  status: ('A' for Active; 'I' for Inactive)
REMARK    1  A    between atoms: C_1  and  O_2
REMARK    2  A    between atoms: O_2  and  C_3
REMARK    3  A    between atoms: C_8  and  O_9
REMARK    4  A    between atoms: O_9  and  C_10
REMARK    5  A    between atoms: C_13  and  C_16
REMARK    6  A    between atoms: C_16  and  C_17
REMARK    7  A    between atoms: N_20  and  C_23
REMARK    8  A    between atoms: C_23  and  C_24
REMARK                            x       y       z     vdW  Elec       q    Type
REMARK                         _______ _______ _______ _____ _____    ______ ____
ROOT
ATOM      1  C   UNL     1      52.225 168.982  42.480  0.00  0.00    +0.162 A 
ATOM      2  C   UNL     1      50.835 168.807  42.491  0.00  0.00    +0.053 A 
ATOM      3  C   UNL     1      50.241 167.713  41.842  0.00  0.00    -0.033 A 
ATOM      4  C   UNL     1      51.056 166.805  41.157  0.00  0.00    +0.025 A 
ATOM      5  C   UNL     1      52.447 166.971  41.143  0.00  0.00    +0.061 A 
ATOM      6  C   UNL     1      53.039 168.053  41.802  0.00  0.00    +0.162 A 
ATOM      7  C   UNL     1      50.459 165.650  40.429  0.00  0.00    +0.167 C 
ATOM      8  O   UNL     1      51.199 164.855  39.853  0.00  0.00    -0.292 OA
ATOM      9  C   UNL     1      48.934 165.543  40.374  0.00  0.00    +0.061 C 
ATOM     10  C   UNL     1      48.323 166.112  41.656  0.00  0.00    +0.016 C 
ATOM     11  C   UNL     1      48.745 167.564  41.859  0.00  0.00    +0.036 C 
ENDROOT
BRANCH   1  13
ATOM     12  C   UNL     1      52.131 170.861  43.959  0.00  0.00    +0.277 C 
ATOM     13  O   UNL     1      52.880 170.020  43.096  0.00  0.00    -0.491 OA
ENDBRANCH   1  13
BRANCH   6  14
ATOM     14  O   UNL     1      54.390 168.294  41.840  0.00  0.00    -0.491 OA
ATOM     15  C   UNL     1      55.122 168.131  40.633  0.00  0.00    +0.277 C 
ENDBRANCH   6  14
BRANCH   9  16
ATOM     16  C   UNL     1      48.523 164.074  40.134  0.00  0.00    +0.015 C 
BRANCH  16  17
ATOM     17  C   UNL     1      48.189 163.252  41.397  0.00  0.00    -0.008 C 
ATOM     18  C   UNL     1      49.474 162.845  42.147  0.00  0.00    +0.019 C 
ATOM     19  C   UNL     1      49.929 161.430  41.787  0.00  0.00    +0.085 C 
ATOM     20  N   UNL     1      48.919 160.396  42.065  0.00  0.00    -0.298 NA
ATOM     21  C   UNL     1      47.544 160.909  42.099  0.00  0.00    +0.085 C 
ATOM     22  C   UNL     1      47.329 162.017  41.071  0.00  0.00    +0.019 C 
BRANCH  20  23
ATOM     23  C   UNL     1      49.210 159.616  43.278  0.00  0.00    +0.119 C 
BRANCH  23  24
ATOM     24  C   UNL     1      49.406 158.136  43.017  0.00  0.00    -0.033 A 
ATOM     25  C   UNL     1      49.902 157.684  41.784  0.00  0.00    +0.005 A 
ATOM     26  C   UNL     1      50.058 156.320  41.538  0.00  0.00    +0.000 A 
ATOM     27  C   UNL     1      49.714 155.391  42.517  0.00  0.00    +0.000 A 
ATOM     28  C   UNL     1      49.211 155.824  43.742  0.00  0.00    +0.000 A 
ATOM     29  C   UNL     1      49.054 157.189  43.990  0.00  0.00    +0.005 A 
ENDBRANCH  23  24
ENDBRANCH  20  23
ENDBRANCH  16  17
ENDBRANCH   9  16
TORSDOF 6
ENDMDL
