MODEL 1
REMARK VINA RESULT:    -8.366      0.000      0.000
REMARK INTER + INTRA:         -10.291
REMARK INTER:                 -10.078
REMARK INTRA:                  -0.213
REMARK UNBOUND:                -0.213
REMARK  Name = 
REMARK  6 active torsions:
REMARK  status: ('A' for Active; 'I' for Inactive)
REMARK    1  A    between atoms: C_2  and  O_21
REMARK    2  A    between atoms: C_3  and  C_13
REMARK    3  A    between atoms: C_7  and  O_12
REMARK    4  A    between atoms: C_9  and  O_11
REMARK    5  A    between atoms: C_15  and  O_20
REMARK    6  A    between atoms: C_16  and  O_19
REMARK                            x       y       z     vdW  Elec       q    Type
REMARK                         _______ _______ _______ _____ _____    ______ ____
ROOT
ATOM      1  C   UNL     1      50.762 161.706  41.656  0.00  0.00    +0.078 C 
ATOM      2  C   UNL     1      50.774 160.317  42.287  0.00  0.00    +0.164 C 
ATOM      3  C   UNL     1      49.632 159.491  41.670  0.00  0.00    +0.232 C 
ATOM      4  O   UNL     1      48.351 160.081  41.930  0.00  0.00    -0.481 OA
ATOM      5  C   UNL     1      48.264 161.424  41.675  0.00  0.00    +0.132 A 
ATOM      6  C   UNL     1      46.966 161.933  41.599  0.00  0.00    +0.091 A 
ATOM      7  C   UNL     1      46.768 163.282  41.344  0.00  0.00    +0.124 A 
ATOM      8  C   UNL     1      47.850 164.134  41.163  0.00  0.00    +0.091 A 
ATOM      9  C   UNL     1      49.143 163.621  41.250  0.00  0.00    +0.127 A 
ATOM     10  C   UNL     1      49.376 162.266  41.530  0.00  0.00    +0.038 A 
ENDROOT
BRANCH   3  11
ATOM     11  C   UNL     1      49.604 158.075  42.229  0.00  0.00    -0.001 A 
ATOM     12  C   UNL     1      50.385 157.057  41.656  0.00  0.00    +0.056 A 
ATOM     13  C   UNL     1      50.319 155.768  42.165  0.00  0.00    +0.159 A 
ATOM     14  C   UNL     1      49.492 155.468  43.244  0.00  0.00    +0.158 A 
ATOM     15  C   UNL     1      48.713 156.458  43.828  0.00  0.00    +0.049 A 
ATOM     16  C   UNL     1      48.770 157.760  43.318  0.00  0.00    +0.011 A 
BRANCH  14  17
ATOM     17  O   UNL     1      49.479 154.177  43.695  0.00  0.00    -0.503 OA
ATOM     18  H   UNL     1      49.658 153.591  42.940  0.00  0.00    +0.292 HD
ENDBRANCH  14  17
BRANCH  13  19
ATOM     19  O   UNL     1      51.076 154.787  41.593  0.00  0.00    -0.503 OA
ATOM     20  H   UNL     1      51.940 154.849  42.048  0.00  0.00    +0.292 HD
ENDBRANCH  13  19
ENDBRANCH   3  11
BRANCH   9  21
ATOM     21  O   UNL     1      50.152 164.522  41.046  0.00  0.00    -0.506 OA
ATOM     22  H   UNL     1      50.409 164.526  40.111  0.00  0.00    +0.292 HD
ENDBRANCH   9  21
BRANCH   7  23
ATOM     23  O   UNL     1      45.485 163.738  41.273  0.00  0.00    -0.507 OA
ATOM     24  H   UNL     1      44.912 163.008  40.985  0.00  0.00    +0.292 HD
ENDBRANCH   7  23
BRANCH   2  25
ATOM     25  O   UNL     1      52.062 159.737  42.049  0.00  0.00    -0.387 OA
ATOM     26  H   UNL     1      52.283 159.914  41.115  0.00  0.00    +0.210 HD
ENDBRANCH   2  25
TORSDOF 6
ENDMDL
MODEL 2
REMARK VINA RESULT:    -8.314      1.294      2.852
REMARK INTER + INTRA:         -10.228
REMARK INTER:                  -9.887
REMARK INTRA:                  -0.341
REMARK UNBOUND:                -0.213
REMARK  Name = 
REMARK  6 active torsions:
REMARK  status: ('A' for Active; 'I' for Inactive)
REMARK    1  A    between atoms: C_2  and  O_21
REMARK    2  A    between atoms: C_3  and  C_13
REMARK    3  A    between atoms: C_7  and  O_12
REMARK    4  A    between atoms: C_9  and  O_11
REMARK    5  A    between atoms: C_15  and  O_20
REMARK    6  A    between atoms: C_16  and  O_19
REMARK                            x       y       z     vdW  Elec       q    Type
REMARK                         _______ _______ _______ _____ _____    ______ ____
ROOT
ATOM      1  C   UNL     1      47.969 161.232  41.760  0.00  0.00    +0.078 C 
ATOM      2  C   UNL     1      48.189 159.732  41.935  0.00  0.00    +0.164 C 
ATOM      3  C   UNL     1      49.418 159.522  42.837  0.00  0.00    +0.232 C 
ATOM      4  O   UNL     1      50.605 160.075  42.253  0.00  0.00    -0.481 OA
ATOM      5  C   UNL     1      50.480 161.352  41.775  0.00  0.00    +0.132 A 
ATOM      6  C   UNL     1      51.683 162.013  41.519  0.00  0.00    +0.091 A 
ATOM      7  C   UNL     1      51.667 163.313  41.033  0.00  0.00    +0.124 A 
ATOM      8  C   UNL     1      50.463 163.965  40.798  0.00  0.00    +0.091 A 
ATOM      9  C   UNL     1      49.265 163.296  41.047  0.00  0.00    +0.127 A 
ATOM     10  C   UNL     1      49.250 161.974  41.516  0.00  0.00    +0.038 A 
ENDROOT
BRANCH   3  11
ATOM     11  C   UNL     1      49.679 158.043  43.087  0.00  0.00    -0.001 A 
ATOM     12  C   UNL     1      50.265 157.235  42.098  0.00  0.00    +0.056 A 
ATOM     13  C   UNL     1      50.464 155.883  42.340  0.00  0.00    +0.159 A 
ATOM     14  C   UNL     1      50.097 155.315  43.556  0.00  0.00    +0.158 A 
ATOM     15  C   UNL     1      49.518 156.093  44.550  0.00  0.00    +0.049 A 
ATOM     16  C   UNL     1      49.309 157.456  44.312  0.00  0.00    +0.011 A 
BRANCH  14  17
ATOM     17  O   UNL     1      50.324 153.977  43.726  0.00  0.00    -0.503 OA
ATOM     18  H   UNL     1      49.975 153.718  44.596  0.00  0.00    +0.292 HD
ENDBRANCH  14  17
BRANCH  13  19
ATOM     19  O   UNL     1      51.026 155.110  41.367  0.00  0.00    -0.503 OA
ATOM     20  H   UNL     1      50.708 154.204  41.559  0.00  0.00    +0.292 HD
ENDBRANCH  13  19
ENDBRANCH   3  11
BRANCH   9  21
ATOM     21  O   UNL     1      48.126 164.013  40.803  0.00  0.00    -0.506 OA
ATOM     22  H   UNL     1      47.466 163.829  41.490  0.00  0.00    +0.292 HD
ENDBRANCH   9  21
BRANCH   7  23
ATOM     23  O   UNL     1      52.863 163.924  40.801  0.00  0.00    -0.507 OA
ATOM     24  H   UNL     1      52.719 164.667  40.191  0.00  0.00    +0.292 HD
ENDBRANCH   7  23
BRANCH   2  25
ATOM     25  O   UNL     1      46.995 159.175  42.497  0.00  0.00    -0.387 OA
ATOM     26  H   UNL     1      46.743 158.420  41.934  0.00  0.00    +0.210 HD
ENDBRANCH   2  25
TORSDOF 6
ENDMDL
MODEL 3
REMARK VINA RESULT:    -8.305      1.533      6.633
REMARK INTER + INTRA:         -10.218
REMARK INTER:                  -9.849
REMARK INTRA:                  -0.369
REMARK UNBOUND:                -0.213
REMARK  Name = 
REMARK  6 active torsions:
REMARK  status: ('A' for Active; 'I' for Inactive)
REMARK    1  A    between atoms: C_2  and  O_21
REMARK    2  A    between atoms: C_3  and  C_13
REMARK    3  A    between atoms: C_7  and  O_12
REMARK    4  A    between atoms: C_9  and  O_11
REMARK    5  A    between atoms: C_15  and  O_20
REMARK    6  A    between atoms: C_16  and  O_19
REMARK                            x       y       z     vdW  Elec       q    Type
REMARK                         _______ _______ _______ _____ _____    ______ ____
ROOT
ATOM      1  C   UNL     1      51.646 159.124  42.523  0.00  0.00    +0.078 C 
ATOM      2  C   UNL     1      50.733 160.180  41.906  0.00  0.00    +0.164 C 
ATOM      3  C   UNL     1      49.362 160.105  42.600  0.00  0.00    +0.232 C 
ATOM      4  O   UNL     1      48.743 158.825  42.413  0.00  0.00    -0.481 OA
ATOM      5  C   UNL     1      49.548 157.745  42.659  0.00  0.00    +0.132 A 
ATOM      6  C   UNL     1      48.882 156.527  42.809  0.00  0.00    +0.091 A 
ATOM      7  C   UNL     1      49.607 155.371  43.062  0.00  0.00    +0.124 A 
ATOM      8  C   UNL     1      50.991 155.413  43.167  0.00  0.00    +0.091 A 
ATOM      9  C   UNL     1      51.651 156.631  43.007  0.00  0.00    +0.127 A 
ATOM     10  C   UNL     1      50.948 157.812  42.727  0.00  0.00    +0.038 A 
ENDROOT
BRANCH   3  11
ATOM     11  C   UNL     1      48.405 161.158  42.059  0.00  0.00    -0.001 A 
ATOM     12  C   UNL     1      48.109 161.228  40.687  0.00  0.00    +0.056 A 
ATOM     13  C   UNL     1      47.257 162.217  40.215  0.00  0.00    +0.159 A 
ATOM     14  C   UNL     1      46.684 163.141  41.085  0.00  0.00    +0.158 A 
ATOM     15  C   UNL     1      46.961 163.090  42.445  0.00  0.00    +0.049 A 
ATOM     16  C   UNL     1      47.822 162.099  42.928  0.00  0.00    +0.011 A 
BRANCH  14  17
ATOM     17  O   UNL     1      45.854 164.086  40.550  0.00  0.00    -0.503 OA
ATOM     18  H   UNL     1      46.101 164.951  40.921  0.00  0.00    +0.292 HD
ENDBRANCH  14  17
BRANCH  13  19
ATOM     19  O   UNL     1      46.985 162.278  38.879  0.00  0.00    -0.503 OA
ATOM     20  H   UNL     1      46.983 161.344  38.587  0.00  0.00    +0.292 HD
ENDBRANCH  13  19
ENDBRANCH   3  11
BRANCH   9  21
ATOM     21  O   UNL     1      53.012 156.589  43.140  0.00  0.00    -0.506 OA
ATOM     22  H   UNL     1      53.425 157.200  42.510  0.00  0.00    +0.292 HD
ENDBRANCH   9  21
BRANCH   7  23
ATOM     23  O   UNL     1      48.919 154.203  43.207  0.00  0.00    -0.507 OA
ATOM     24  H   UNL     1      47.980 154.372  43.021  0.00  0.00    +0.292 HD
ENDBRANCH   7  23
BRANCH   2  25
ATOM     25  O   UNL     1      51.362 161.456  42.071  0.00  0.00    -0.387 OA
ATOM     26  H   UNL     1      51.388 161.637  43.029  0.00  0.00    +0.210 HD
ENDBRANCH   2  25
TORSDOF 6
ENDMDL
MODEL 4
REMARK VINA RESULT:    -8.260      1.851      7.121
REMARK INTER + INTRA:         -10.164
REMARK INTER:                  -9.831
REMARK INTRA:                  -0.333
REMARK UNBOUND:                -0.213
REMARK  Name = 
REMARK  6 active torsions:
REMARK  status: ('A' for Active; 'I' for Inactive)
REMARK    1  A    between atoms: C_2  and  O_21
REMARK    2  A    between atoms: C_3  and  C_13
REMARK    3  A    between atoms: C_7  and  O_12
REMARK    4  A    between atoms: C_9  and  O_11
REMARK    5  A    between atoms: C_15  and  O_20
REMARK    6  A    between atoms: C_16  and  O_19
REMARK                            x       y       z     vdW  Elec       q    Type
REMARK                         _______ _______ _______ _____ _____    ______ ____
ROOT
ATOM      1  C   UNL     1      48.947 158.238  42.812  0.00  0.00    +0.078 C 
ATOM      2  C   UNL     1      48.393 159.645  42.607  0.00  0.00    +0.164 C 
ATOM      3  C   UNL     1      49.168 160.311  41.456  0.00  0.00    +0.232 C 
ATOM      4  O   UNL     1      50.564 160.429  41.757  0.00  0.00    -0.481 OA
ATOM      5  C   UNL     1      51.156 159.291  42.238  0.00  0.00    +0.132 A 
ATOM      6  C   UNL     1      52.553 159.290  42.213  0.00  0.00    +0.091 A 
ATOM      7  C   UNL     1      53.250 158.184  42.678  0.00  0.00    +0.124 A 
ATOM      8  C   UNL     1      52.571 157.075  43.168  0.00  0.00    +0.091 A 
ATOM      9  C   UNL     1      51.178 157.087  43.198  0.00  0.00    +0.127 A 
ATOM     10  C   UNL     1      50.446 158.199  42.757  0.00  0.00    +0.038 A 
ENDROOT
BRANCH   3  11
ATOM     11  C   UNL     1      48.643 161.711  41.169  0.00  0.00    -0.001 A 
ATOM     12  C   UNL     1      47.778 161.951  40.088  0.00  0.00    +0.056 A 
ATOM     13  C   UNL     1      47.337 163.241  39.830  0.00  0.00    +0.159 A 
ATOM     14  C   UNL     1      47.736 164.305  40.634  0.00  0.00    +0.158 A 
ATOM     15  C   UNL     1      48.588 164.092  41.709  0.00  0.00    +0.049 A 
ATOM     16  C   UNL     1      49.041 162.795  41.973  0.00  0.00    +0.011 A 
BRANCH  14  17
ATOM     17  O   UNL     1      47.261 165.549  40.322  0.00  0.00    -0.503 OA
ATOM     18  H   UNL     1      47.340 166.110  41.113  0.00  0.00    +0.292 HD
ENDBRANCH  14  17
BRANCH  13  19
ATOM     19  O   UNL     1      46.504 163.460  38.772  0.00  0.00    -0.503 OA
ATOM     20  H   UNL     1      45.617 163.558  39.174  0.00  0.00    +0.292 HD
ENDBRANCH  13  19
ENDBRANCH   3  11
BRANCH   9  21
ATOM     21  O   UNL     1      50.587 155.952  43.682  0.00  0.00    -0.506 OA
ATOM     22  H   UNL     1      51.005 155.691  44.517  0.00  0.00    +0.292 HD
ENDBRANCH   9  21
BRANCH   7  23
ATOM     23  O   UNL     1      54.612 158.221  42.632  0.00  0.00    -0.507 OA
ATOM     24  H   UNL     1      54.955 157.359  42.923  0.00  0.00    +0.292 HD
ENDBRANCH   7  23
BRANCH   2  25
ATOM     25  O   UNL     1      46.992 159.529  42.330  0.00  0.00    -0.387 OA
ATOM     26  H   UNL     1      46.714 160.370  41.922  0.00  0.00    +0.210 HD
ENDBRANCH   2  25
TORSDOF 6
ENDMDL
MODEL 5
REMARK VINA RESULT:    -8.188      1.719      2.581
REMARK INTER + INTRA:         -10.076
REMARK INTER:                  -9.710
REMARK INTRA:                  -0.366
REMARK UNBOUND:                -0.213
REMARK  Name = 
REMARK  6 active torsions:
REMARK  status: ('A' for Active; 'I' for Inactive)
REMARK    1  A    between atoms: C_2  and  O_21
REMARK    2  A    between atoms: C_3  and  C_13
REMARK    3  A    between atoms: C_7  and  O_12
REMARK    4  A    between atoms: C_9  and  O_11
REMARK    5  A    between atoms: C_15  and  O_20
REMARK    6  A    between atoms: C_16  and  O_19
REMARK                            x       y       z     vdW  Elec       q    Type
REMARK                         _______ _______ _______ _____ _____    ______ ____
ROOT
ATOM      1  C   UNL     1      51.185 159.826  42.225  0.00  0.00    +0.078 C 
ATOM      2  C   UNL     1      51.047 158.643  43.179  0.00  0.00    +0.164 C 
ATOM      3  C   UNL     1      49.773 157.863  42.807  0.00  0.00    +0.232 C 
ATOM      4  O   UNL     1      48.599 158.674  42.939  0.00  0.00    -0.481 OA
ATOM      5  C   UNL     1      48.676 159.914  42.363  0.00  0.00    +0.132 A 
ATOM      6  C   UNL     1      47.455 160.568  42.190  0.00  0.00    +0.091 A 
ATOM      7  C   UNL     1      47.425 161.831  41.614  0.00  0.00    +0.124 A 
ATOM      8  C   UNL     1      48.599 162.451  41.207  0.00  0.00    +0.091 A 
ATOM      9  C   UNL     1      49.816 161.796  41.392  0.00  0.00    +0.127 A 
ATOM     10  C   UNL     1      49.881 160.530  41.992  0.00  0.00    +0.038 A 
ENDROOT
BRANCH   3  11
ATOM     11  C   UNL     1      49.588 156.642  43.698  0.00  0.00    -0.001 A 
ATOM     12  C   UNL     1      49.255 156.782  45.056  0.00  0.00    +0.056 A 
ATOM     13  C   UNL     1      49.121 155.654  45.853  0.00  0.00    +0.159 A 
ATOM     14  C   UNL     1      49.307 154.380  45.325  0.00  0.00    +0.158 A 
ATOM     15  C   UNL     1      49.635 154.217  43.985  0.00  0.00    +0.049 A 
ATOM     16  C   UNL     1      49.776 155.349  43.175  0.00  0.00    +0.011 A 
BRANCH  14  17
ATOM     17  O   UNL     1      49.158 153.315  46.168  0.00  0.00    -0.503 OA
ATOM     18  H   UNL     1      50.013 152.855  46.229  0.00  0.00    +0.292 HD
ENDBRANCH  14  17
BRANCH  13  19
ATOM     19  O   UNL     1      48.806 155.807  47.172  0.00  0.00    -0.503 OA
ATOM     20  H   UNL     1      47.916 156.215  47.165  0.00  0.00    +0.292 HD
ENDBRANCH  13  19
ENDBRANCH   3  11
BRANCH   9  21
ATOM     21  O   UNL     1      50.923 162.468  40.952  0.00  0.00    -0.506 OA
ATOM     22  H   UNL     1      51.712 162.147  41.416  0.00  0.00    +0.292 HD
ENDBRANCH   9  21
BRANCH   7  23
ATOM     23  O   UNL     1      46.211 162.433  41.458  0.00  0.00    -0.507 OA
ATOM     24  H   UNL     1      46.288 163.107  40.762  0.00  0.00    +0.292 HD
ENDBRANCH   7  23
BRANCH   2  25
ATOM     25  O   UNL     1      52.231 157.845  43.065  0.00  0.00    -0.387 OA
ATOM     26  H   UNL     1      52.039 157.144  42.414  0.00  0.00    +0.210 HD
ENDBRANCH   2  25
TORSDOF 6
ENDMDL
MODEL 6
REMARK VINA RESULT:    -7.955      2.038      7.227
REMARK INTER + INTRA:          -9.796
REMARK INTER:                  -9.423
REMARK INTRA:                  -0.373
REMARK UNBOUND:                -0.213
REMARK  Name = 
REMARK  6 active torsions:
REMARK  status: ('A' for Active; 'I' for Inactive)
REMARK    1  A    between atoms: C_2  and  O_21
REMARK    2  A    between atoms: C_3  and  C_13
REMARK    3  A    between atoms: C_7  and  O_12
REMARK    4  A    between atoms: C_9  and  O_11
REMARK    5  A    between atoms: C_15  and  O_20
REMARK    6  A    between atoms: C_16  and  O_19
REMARK                            x       y       z     vdW  Elec       q    Type
REMARK                         _______ _______ _______ _____ _____    ______ ____
ROOT
ATOM      1  C   UNL     1      49.816 155.669  42.532  0.00  0.00    +0.078 C 
ATOM      2  C   UNL     1      49.379 157.011  41.951  0.00  0.00    +0.164 C 
ATOM      3  C   UNL     1      49.848 158.129  42.900  0.00  0.00    +0.232 C 
ATOM      4  O   UNL     1      49.259 158.001  44.200  0.00  0.00    -0.481 OA
ATOM      5  C   UNL     1      49.320 156.747  44.748  0.00  0.00    +0.132 A 
ATOM      6  C   UNL     1      49.064 156.683  46.120  0.00  0.00    +0.091 A 
ATOM      7  C   UNL     1      49.102 155.459  46.772  0.00  0.00    +0.124 A 
ATOM      8  C   UNL     1      49.392 154.294  46.074  0.00  0.00    +0.091 A 
ATOM      9  C   UNL     1      49.637 154.364  44.703  0.00  0.00    +0.127 A 
ATOM     10  C   UNL     1      49.584 155.583  44.012  0.00  0.00    +0.038 A 
ENDROOT
BRANCH   3  11
ATOM     11  C   UNL     1      49.478 159.505  42.364  0.00  0.00    -0.001 A 
ATOM     12  C   UNL     1      48.134 159.866  42.166  0.00  0.00    +0.056 A 
ATOM     13  C   UNL     1      47.825 161.116  41.648  0.00  0.00    +0.159 A 
ATOM     14  C   UNL     1      48.830 162.024  41.327  0.00  0.00    +0.158 A 
ATOM     15  C   UNL     1      50.164 161.690  41.515  0.00  0.00    +0.049 A 
ATOM     16  C   UNL     1      50.485 160.430  42.032  0.00  0.00    +0.011 A 
BRANCH  14  17
ATOM     17  O   UNL     1      48.451 163.237  40.823  0.00  0.00    -0.503 OA
ATOM     18  H   UNL     1      49.085 163.488  40.129  0.00  0.00    +0.292 HD
ENDBRANCH  14  17
BRANCH  13  19
ATOM     19  O   UNL     1      46.516 161.449  41.454  0.00  0.00    -0.503 OA
ATOM     20  H   UNL     1      46.200 160.818  40.776  0.00  0.00    +0.292 HD
ENDBRANCH  13  19
ENDBRANCH   3  11
BRANCH   9  21
ATOM     21  O   UNL     1      49.929 153.175  44.093  0.00  0.00    -0.506 OA
ATOM     22  H   UNL     1      49.333 153.032  43.342  0.00  0.00    +0.292 HD
ENDBRANCH   9  21
BRANCH   7  23
ATOM     23  O   UNL     1      48.851 155.441  48.112  0.00  0.00    -0.507 OA
ATOM     24  H   UNL     1      49.607 155.030  48.563  0.00  0.00    +0.292 HD
ENDBRANCH   7  23
BRANCH   2  25
ATOM     25  O   UNL     1      49.948 157.129  40.641  0.00  0.00    -0.387 OA
ATOM     26  H   UNL     1      50.322 156.257  40.415  0.00  0.00    +0.210 HD
ENDBRANCH   2  25
TORSDOF 6
ENDMDL
MODEL 7
REMARK VINA RESULT:    -7.826      1.775      7.380
REMARK INTER + INTRA:          -9.640
REMARK INTER:                  -9.831
REMARK INTRA:                   0.191
REMARK UNBOUND:                -0.213
REMARK  Name = 
REMARK  6 active torsions:
REMARK  status: ('A' for Active; 'I' for Inactive)
REMARK    1  A    between atoms: C_2  and  O_21
REMARK    2  A    between atoms: C_3  and  C_13
REMARK    3  A    between atoms: C_7  and  O_12
REMARK    4  A    between atoms: C_9  and  O_11
REMARK    5  A    between atoms: C_15  and  O_20
REMARK    6  A    between atoms: C_16  and  O_19
REMARK                            x       y       z     vdW  Elec       q    Type
REMARK                         _______ _______ _______ _____ _____    ______ ____
ROOT
ATOM      1  C   UNL     1      48.102 159.226  42.416  0.00  0.00    +0.078 C 
ATOM      2  C   UNL     1      48.228 160.743  42.310  0.00  0.00    +0.164 C 
ATOM      3  C   UNL     1      49.410 161.070  41.380  0.00  0.00    +0.232 C 
ATOM      4  O   UNL     1      50.647 160.562  41.897  0.00  0.00    -0.481 OA
ATOM      5  C   UNL     1      50.614 159.258  42.314  0.00  0.00    +0.132 A 
ATOM      6  C   UNL     1      51.863 158.659  42.497  0.00  0.00    +0.091 A 
ATOM      7  C   UNL     1      51.939 157.339  42.917  0.00  0.00    +0.124 A 
ATOM      8  C   UNL     1      50.785 156.605  43.157  0.00  0.00    +0.091 A 
ATOM      9  C   UNL     1      49.542 157.212  42.981  0.00  0.00    +0.127 A 
ATOM     10  C   UNL     1      49.432 158.551  42.580  0.00  0.00    +0.038 A 
ENDROOT
BRANCH   3  11
ATOM     11  C   UNL     1      49.575 162.573  41.197  0.00  0.00    -0.001 A 
ATOM     12  C   UNL     1      48.493 163.375  40.797  0.00  0.00    +0.056 A 
ATOM     13  C   UNL     1      48.677 164.737  40.608  0.00  0.00    +0.159 A 
ATOM     14  C   UNL     1      49.921 165.325  40.816  0.00  0.00    +0.158 A 
ATOM     15  C   UNL     1      51.005 164.553  41.214  0.00  0.00    +0.049 A 
ATOM     16  C   UNL     1      50.829 163.178  41.402  0.00  0.00    +0.011 A 
BRANCH  14  17
ATOM     17  O   UNL     1      50.028 166.673  40.613  0.00  0.00    -0.503 OA
ATOM     18  H   UNL     1      49.635 166.881  39.748  0.00  0.00    +0.292 HD
ENDBRANCH  14  17
BRANCH  13  19
ATOM     19  O   UNL     1      47.618 165.502  40.212  0.00  0.00    -0.503 OA
ATOM     20  H   UNL     1      47.179 165.765  41.046  0.00  0.00    +0.292 HD
ENDBRANCH  13  19
ENDBRANCH   3  11
BRANCH   9  21
ATOM     21  O   UNL     1      48.456 156.417  43.225  0.00  0.00    -0.506 OA
ATOM     22  H   UNL     1      48.247 156.422  44.172  0.00  0.00    +0.292 HD
ENDBRANCH   9  21
BRANCH   7  23
ATOM     23  O   UNL     1      53.177 156.790  43.079  0.00  0.00    -0.507 OA
ATOM     24  H   UNL     1      53.605 157.212  43.843  0.00  0.00    +0.292 HD
ENDBRANCH   7  23
BRANCH   2  25
ATOM     25  O   UNL     1      46.984 161.254  41.816  0.00  0.00    -0.387 OA
ATOM     26  H   UNL     1      46.587 160.551  41.269  0.00  0.00    +0.210 HD
ENDBRANCH   2  25
TORSDOF 6
ENDMDL
MODEL 8
REMARK VINA RESULT:    -7.632      1.780      3.397
REMARK INTER + INTRA:          -9.406
REMARK INTER:                  -9.028
REMARK INTRA:                  -0.378
REMARK UNBOUND:                -0.213
REMARK  Name = 
REMARK  6 active torsions:
REMARK  status: ('A' for Active; 'I' for Inactive)
REMARK    1  A    between atoms: C_2  and  O_21
REMARK    2  A    between atoms: C_3  and  C_13
REMARK    3  A    between atoms: C_7  and  O_12
REMARK    4  A    between atoms: C_9  and  O_11
REMARK    5  A    between atoms: C_15  and  O_20
REMARK    6  A    between atoms: C_16  and  O_19
REMARK                            x       y       z     vdW  Elec       q    Type
REMARK                         _______ _______ _______ _____ _____    ______ ____
ROOT
ATOM      1  C   UNL     1      47.574 162.728  41.103  0.00  0.00    +0.078 C 
ATOM      2  C   UNL     1      47.805 161.229  41.277  0.00  0.00    +0.164 C 
ATOM      3  C   UNL     1      49.027 161.027  42.190  0.00  0.00    +0.232 C 
ATOM      4  O   UNL     1      50.214 161.591  41.619  0.00  0.00    -0.481 OA
ATOM      5  C   UNL     1      50.084 162.868  41.143  0.00  0.00    +0.132 A 
ATOM      6  C   UNL     1      51.284 163.539  40.900  0.00  0.00    +0.091 A 
ATOM      7  C   UNL     1      51.262 164.840  40.418  0.00  0.00    +0.124 A 
ATOM      8  C   UNL     1      50.056 165.483  40.173  0.00  0.00    +0.091 A 
ATOM      9  C   UNL     1      48.861 164.804  40.409  0.00  0.00    +0.127 A 
ATOM     10  C   UNL     1      48.851 163.481  40.874  0.00  0.00    +0.038 A 
ENDROOT
BRANCH   3  11
ATOM     11  C   UNL     1      49.297 159.549  42.439  0.00  0.00    -0.001 A 
ATOM     12  C   UNL     1      49.305 159.025  43.743  0.00  0.00    +0.056 A 
ATOM     13  C   UNL     1      49.584 157.681  43.944  0.00  0.00    +0.159 A 
ATOM     14  C   UNL     1      49.849 156.838  42.869  0.00  0.00    +0.158 A 
ATOM     15  C   UNL     1      49.845 157.333  41.571  0.00  0.00    +0.049 A 
ATOM     16  C   UNL     1      49.570 158.688  41.360  0.00  0.00    +0.011 A 
BRANCH  14  17
ATOM     17  O   UNL     1      50.114 155.525  43.141  0.00  0.00    -0.503 OA
ATOM     18  H   UNL     1      50.154 155.042  42.298  0.00  0.00    +0.292 HD
ENDBRANCH  14  17
BRANCH  13  19
ATOM     19  O   UNL     1      49.596 157.188  45.217  0.00  0.00    -0.503 OA
ATOM     20  H   UNL     1      49.094 157.846  45.739  0.00  0.00    +0.292 HD
ENDBRANCH  13  19
ENDBRANCH   3  11
BRANCH   9  21
ATOM     21  O   UNL     1      47.718 165.512  40.156  0.00  0.00    -0.506 OA
ATOM     22  H   UNL     1      47.714 165.817  39.235  0.00  0.00    +0.292 HD
ENDBRANCH   9  21
BRANCH   7  23
ATOM     23  O   UNL     1      52.456 165.462  40.199  0.00  0.00    -0.507 OA
ATOM     24  H   UNL     1      53.096 165.145  40.858  0.00  0.00    +0.292 HD
ENDBRANCH   7  23
BRANCH   2  25
ATOM     25  O   UNL     1      46.610 160.661  41.826  0.00  0.00    -0.387 OA
ATOM     26  H   UNL     1      45.917 161.345  41.764  0.00  0.00    +0.210 HD
ENDBRANCH   2  25
TORSDOF 6
ENDMDL
MODEL 9
REMARK VINA RESULT:    -6.961      2.349      7.491
REMARK INTER + INTRA:          -8.598
REMARK INTER:                  -8.275
REMARK INTRA:                  -0.323
REMARK UNBOUND:                -0.213
REMARK  Name = 
REMARK  6 active torsions:
REMARK  status: ('A' for Active; 'I' for Inactive)
REMARK    1  A    between atoms: C_2  and  O_21
REMARK    2  A    between atoms: C_3  and  C_13
REMARK    3  A    between atoms: C_7  and  O_12
REMARK    4  A    between atoms: C_9  and  O_11
REMARK    5  A    between atoms: C_15  and  O_20
REMARK    6  A    between atoms: C_16  and  O_19
REMARK                            x       y       z     vdW  Elec       q    Type
REMARK                         _______ _______ _______ _____ _____    ______ ____
ROOT
ATOM      1  C   UNL     1      48.229 161.265  42.381  0.00  0.00    +0.078 C 
ATOM      2  C   UNL     1      48.987 162.589  42.401  0.00  0.00    +0.164 C 
ATOM      3  C   UNL     1      50.174 162.486  41.427  0.00  0.00    +0.232 C 
ATOM      4  O   UNL     1      51.088 161.452  41.814  0.00  0.00    -0.481 OA
ATOM      5  C   UNL     1      50.513 160.246  42.115  0.00  0.00    +0.132 A 
ATOM      6  C   UNL     1      51.391 159.161  42.161  0.00  0.00    +0.091 A 
ATOM      7  C   UNL     1      50.908 157.895  42.457  0.00  0.00    +0.124 A 
ATOM      8  C   UNL     1      49.557 157.695  42.708  0.00  0.00    +0.091 A 
ATOM      9  C   UNL     1      48.687 158.783  42.670  0.00  0.00    +0.127 A 
ATOM     10  C   UNL     1      49.149 160.079  42.397  0.00  0.00    +0.038 A 
ENDROOT
BRANCH   3  11
ATOM     11  C   UNL     1      50.958 163.790  41.366  0.00  0.00    -0.001 A 
ATOM     12  C   UNL     1      50.760 164.704  40.318  0.00  0.00    +0.056 A 
ATOM     13  C   UNL     1      51.509 165.871  40.269  0.00  0.00    +0.159 A 
ATOM     14  C   UNL     1      52.454 166.154  41.252  0.00  0.00    +0.158 A 
ATOM     15  C   UNL     1      52.667 165.266  42.298  0.00  0.00    +0.049 A 
ATOM     16  C   UNL     1      51.919 164.085  42.352  0.00  0.00    +0.011 A 
BRANCH  14  17
ATOM     17  O   UNL     1      53.155 167.323  41.141  0.00  0.00    -0.503 OA
ATOM     18  H   UNL     1      52.827 167.799  40.359  0.00  0.00    +0.292 HD
ENDBRANCH  14  17
BRANCH  13  19
ATOM     19  O   UNL     1      51.311 166.746  39.241  0.00  0.00    -0.503 OA
ATOM     20  H   UNL     1      51.039 167.579  39.677  0.00  0.00    +0.292 HD
ENDBRANCH  13  19
ENDBRANCH   3  11
BRANCH   9  21
ATOM     21  O   UNL     1      47.372 158.499  42.915  0.00  0.00    -0.506 OA
ATOM     22  H   UNL     1      46.803 159.069  42.374  0.00  0.00    +0.292 HD
ENDBRANCH   9  21
BRANCH   7  23
ATOM     23  O   UNL     1      51.798 156.862  42.487  0.00  0.00    -0.507 OA
ATOM     24  H   UNL     1      51.863 156.484  41.595  0.00  0.00    +0.292 HD
ENDBRANCH   7  23
BRANCH   2  25
ATOM     25  O   UNL     1      48.068 163.627  42.037  0.00  0.00    -0.387 OA
ATOM     26  H   UNL     1      48.500 164.156  41.342  0.00  0.00    +0.210 HD
ENDBRANCH   2  25
TORSDOF 6
ENDMDL
