MODEL 1
REMARK VINA RESULT:    -8.036      0.000      0.000
REMARK INTER + INTRA:         -13.067
REMARK INTER:                 -11.795
REMARK INTRA:                  -1.272
REMARK UNBOUND:                -1.272
REMARK  Name = 
REMARK  12 active torsions:
REMARK  status: ('A' for Active; 'I' for Inactive)
REMARK    1  A    between atoms: C_2  and  O_22
REMARK    2  A    between atoms: C_3  and  C_13
REMARK    3  A    between atoms: C_7  and  O_12
REMARK    4  A    between atoms: C_9  and  O_11
REMARK    5  A    between atoms: C_15  and  O_21
REMARK    6  A    between atoms: C_16  and  O_20
REMARK    7  A    between atoms: C_17  and  O_19
REMARK    8  A    between atoms: O_22  and  C_23
REMARK    9  A    between atoms: C_23  and  C_25
REMARK   10  A    between atoms: C_27  and  O_33
REMARK   11  A    between atoms: C_28  and  O_32
REMARK   12  A    between atoms: C_29  and  O_31
REMARK                            x       y       z     vdW  Elec       q    Type
REMARK                         _______ _______ _______ _____ _____    ______ ____
ROOT
ATOM      1  C   UNL     1      52.265 164.064  40.336  0.00  0.00    +0.091 C 
ATOM      2  C   UNL     1      52.216 163.241  41.621  0.00  0.00    +0.226 C 
ATOM      3  C   UNL     1      50.951 163.608  42.422  0.00  0.00    +0.245 C 
ATOM      4  O   UNL     1      50.914 165.007  42.755  0.00  0.00    -0.480 OA
ATOM      5  C   UNL     1      51.385 165.891  41.818  0.00  0.00    +0.132 A 
ATOM      6  C   UNL     1      51.168 167.238  42.120  0.00  0.00    +0.091 A 
ATOM      7  C   UNL     1      51.557 168.219  41.219  0.00  0.00    +0.124 A 
ATOM      8  C   UNL     1      52.158 167.874  40.016  0.00  0.00    +0.091 A 
ATOM      9  C   UNL     1      52.379 166.528  39.722  0.00  0.00    +0.127 A 
ATOM     10  C   UNL     1      52.018 165.516  40.623  0.00  0.00    +0.039 A 
ENDROOT
BRANCH   3  11
ATOM     11  C   UNL     1      49.626 163.122  41.831  0.00  0.00    +0.003 A 
ATOM     12  C   UNL     1      49.039 161.950  42.353  0.00  0.00    +0.056 A 
ATOM     13  C   UNL     1      47.844 161.469  41.832  0.00  0.00    +0.162 A 
ATOM     14  C   UNL     1      47.209 162.138  40.799  0.00  0.00    +0.201 A 
ATOM     15  C   UNL     1      47.762 163.301  40.281  0.00  0.00    +0.162 A 
ATOM     16  C   UNL     1      48.962 163.798  40.788  0.00  0.00    +0.056 A 
BRANCH  15  17
ATOM     17  O   UNL     1      47.090 163.930  39.269  0.00  0.00    -0.503 OA
ATOM     18  H   UNL     1      47.577 164.743  39.043  0.00  0.00    +0.292 HD
ENDBRANCH  15  17
BRANCH  14  19
ATOM     19  O   UNL     1      46.034 161.643  40.303  0.00  0.00    -0.501 OA
ATOM     20  H   UNL     1      45.640 162.401  39.824  0.00  0.00    +0.292 HD
ENDBRANCH  14  19
BRANCH  13  21
ATOM     21  O   UNL     1      47.302 160.329  42.350  0.00  0.00    -0.503 OA
ATOM     22  H   UNL     1      47.151 160.535  43.295  0.00  0.00    +0.292 HD
ENDBRANCH  13  21
ENDBRANCH   3  11
BRANCH   9  23
ATOM     23  O   UNL     1      52.958 166.282  38.508  0.00  0.00    -0.506 OA
ATOM     24  H   UNL     1      53.541 167.014  38.257  0.00  0.00    +0.292 HD
ENDBRANCH   9  23
BRANCH   7  25
ATOM     25  O   UNL     1      51.321 169.520  41.550  0.00  0.00    -0.507 OA
ATOM     26  H   UNL     1      52.113 170.042  41.340  0.00  0.00    +0.292 HD
ENDBRANCH   7  25
BRANCH   2  27
ATOM     27  O   UNL     1      52.265 161.830  41.333  0.00  0.00    -0.453 OA
BRANCH  27  28
ATOM     28  C   UNL     1      53.062 161.087  42.137  0.00  0.00    +0.340 C 
ATOM     29  O   UNL     1      54.103 161.463  42.653  0.00  0.00    -0.245 OA
BRANCH  28  30
ATOM     30  C   UNL     1      52.509 159.723  42.334  0.00  0.00    +0.066 A 
ATOM     31  C   UNL     1      51.115 159.561  42.213  0.00  0.00    +0.064 A 
ATOM     32  C   UNL     1      50.551 158.303  42.398  0.00  0.00    +0.163 A 
ATOM     33  C   UNL     1      51.360 157.215  42.704  0.00  0.00    +0.201 A 
ATOM     34  C   UNL     1      52.734 157.376  42.828  0.00  0.00    +0.163 A 
ATOM     35  C   UNL     1      53.321 158.621  42.645  0.00  0.00    +0.064 A 
BRANCH  34  36
ATOM     36  O   UNL     1      53.520 156.305  43.136  0.00  0.00    -0.503 OA
ATOM     37  H   UNL     1      54.235 156.669  43.697  0.00  0.00    +0.292 HD
ENDBRANCH  34  36
BRANCH  33  38
ATOM     38  O   UNL     1      50.815 155.974  42.891  0.00  0.00    -0.501 OA
ATOM     39  H   UNL     1      50.309 156.053  43.725  0.00  0.00    +0.292 HD
ENDBRANCH  33  38
BRANCH  32  40
ATOM     40  O   UNL     1      49.207 158.087  42.293  0.00  0.00    -0.503 OA
ATOM     41  H   UNL     1      48.750 158.646  42.947  0.00  0.00    +0.292 HD
ENDBRANCH  32  40
ENDBRANCH  28  30
ENDBRANCH  27  28
ENDBRANCH   2  27
TORSDOF 12
ENDMDL
MODEL 2
REMARK VINA RESULT:    -7.891      0.424      1.499
REMARK INTER + INTRA:         -12.853
REMARK INTER:                 -11.627
REMARK INTRA:                  -1.225
REMARK UNBOUND:                -1.272
REMARK  Name = 
REMARK  12 active torsions:
REMARK  status: ('A' for Active; 'I' for Inactive)
REMARK    1  A    between atoms: C_2  and  O_22
REMARK    2  A    between atoms: C_3  and  C_13
REMARK    3  A    between atoms: C_7  and  O_12
REMARK    4  A    between atoms: C_9  and  O_11
REMARK    5  A    between atoms: C_15  and  O_21
REMARK    6  A    between atoms: C_16  and  O_20
REMARK    7  A    between atoms: C_17  and  O_19
REMARK    8  A    between atoms: O_22  and  C_23
REMARK    9  A    between atoms: C_23  and  C_25
REMARK   10  A    between atoms: C_27  and  O_33
REMARK   11  A    between atoms: C_28  and  O_32
REMARK   12  A    between atoms: C_29  and  O_31
REMARK                            x       y       z     vdW  Elec       q    Type
REMARK                         _______ _______ _______ _____ _____    ______ ____
ROOT
ATOM      1  C   UNL     1      52.126 164.515  40.318  0.00  0.00    +0.091 C 
ATOM      2  C   UNL     1      52.191 163.605  41.541  0.00  0.00    +0.226 C 
ATOM      3  C   UNL     1      50.943 163.826  42.419  0.00  0.00    +0.245 C 
ATOM      4  O   UNL     1      50.830 165.193  42.854  0.00  0.00    -0.480 OA
ATOM      5  C   UNL     1      51.197 166.171  41.964  0.00  0.00    +0.132 A 
ATOM      6  C   UNL     1      50.906 167.475  42.371  0.00  0.00    +0.091 A 
ATOM      7  C   UNL     1      51.187 168.540  41.528  0.00  0.00    +0.124 A 
ATOM      8  C   UNL     1      51.752 168.323  40.279  0.00  0.00    +0.091 A 
ATOM      9  C   UNL     1      52.048 167.019  39.880  0.00  0.00    +0.127 A 
ATOM     10  C   UNL     1      51.797 165.924  40.720  0.00  0.00    +0.039 A 
ENDROOT
BRANCH   3  11
ATOM     11  C   UNL     1      49.627 163.292  41.850  0.00  0.00    +0.003 A 
ATOM     12  C   UNL     1      49.072 162.121  42.407  0.00  0.00    +0.056 A 
ATOM     13  C   UNL     1      47.887 161.597  41.908  0.00  0.00    +0.162 A 
ATOM     14  C   UNL     1      47.229 162.222  40.861  0.00  0.00    +0.201 A 
ATOM     15  C   UNL     1      47.750 163.383  40.308  0.00  0.00    +0.162 A 
ATOM     16  C   UNL     1      48.940 163.923  40.794  0.00  0.00    +0.056 A 
BRANCH  15  17
ATOM     17  O   UNL     1      47.057 163.967  39.284  0.00  0.00    -0.503 OA
ATOM     18  H   UNL     1      47.552 163.815  38.459  0.00  0.00    +0.292 HD
ENDBRANCH  15  17
BRANCH  14  19
ATOM     19  O   UNL     1      46.063 161.684  40.386  0.00  0.00    -0.501 OA
ATOM     20  H   UNL     1      45.566 161.444  41.196  0.00  0.00    +0.292 HD
ENDBRANCH  14  19
BRANCH  13  21
ATOM     21  O   UNL     1      47.376 160.459  42.460  0.00  0.00    -0.503 OA
ATOM     22  H   UNL     1      47.691 160.471  43.386  0.00  0.00    +0.292 HD
ENDBRANCH  13  21
ENDBRANCH   3  11
BRANCH   9  23
ATOM     23  O   UNL     1      52.585 166.898  38.629  0.00  0.00    -0.506 OA
ATOM     24  H   UNL     1      53.520 166.647  38.685  0.00  0.00    +0.292 HD
ENDBRANCH   9  23
BRANCH   7  25
ATOM     25  O   UNL     1      50.880 169.796  41.962  0.00  0.00    -0.507 OA
ATOM     26  H   UNL     1      50.740 169.766  42.924  0.00  0.00    +0.292 HD
ENDBRANCH   7  25
BRANCH   2  27
ATOM     27  O   UNL     1      52.320 162.223  41.150  0.00  0.00    -0.453 OA
BRANCH  27  28
ATOM     28  C   UNL     1      53.167 161.472  41.893  0.00  0.00    +0.340 C 
ATOM     29  O   UNL     1      54.254 161.832  42.316  0.00  0.00    -0.245 OA
BRANCH  28  30
ATOM     30  C   UNL     1      52.605 160.121  42.150  0.00  0.00    +0.066 A 
ATOM     31  C   UNL     1      53.512 159.075  42.403  0.00  0.00    +0.064 A 
ATOM     32  C   UNL     1      53.032 157.791  42.640  0.00  0.00    +0.163 A 
ATOM     33  C   UNL     1      51.665 157.544  42.623  0.00  0.00    +0.201 A 
ATOM     34  C   UNL     1      50.770 158.575  42.369  0.00  0.00    +0.163 A 
ATOM     35  C   UNL     1      51.225 159.867  42.133  0.00  0.00    +0.064 A 
BRANCH  34  36
ATOM     36  O   UNL     1      49.430 158.325  42.347  0.00  0.00    -0.503 OA
ATOM     37  H   UNL     1      49.283 157.803  41.531  0.00  0.00    +0.292 HD
ENDBRANCH  34  36
BRANCH  33  38
ATOM     38  O   UNL     1      51.182 156.285  42.852  0.00  0.00    -0.501 OA
ATOM     39  H   UNL     1      51.335 156.136  43.807  0.00  0.00    +0.292 HD
ENDBRANCH  33  38
BRANCH  32  40
ATOM     40  O   UNL     1      53.866 156.739  42.891  0.00  0.00    -0.503 OA
ATOM     41  H   UNL     1      53.379 156.073  43.409  0.00  0.00    +0.292 HD
ENDBRANCH  32  40
ENDBRANCH  28  30
ENDBRANCH  27  28
ENDBRANCH   2  27
TORSDOF 12
ENDMDL
MODEL 3
REMARK VINA RESULT:    -7.863      1.889      4.695
REMARK INTER + INTRA:         -12.812
REMARK INTER:                 -11.671
REMARK INTRA:                  -1.141
REMARK UNBOUND:                -1.272
REMARK  Name = 
REMARK  12 active torsions:
REMARK  status: ('A' for Active; 'I' for Inactive)
REMARK    1  A    between atoms: C_2  and  O_22
REMARK    2  A    between atoms: C_3  and  C_13
REMARK    3  A    between atoms: C_7  and  O_12
REMARK    4  A    between atoms: C_9  and  O_11
REMARK    5  A    between atoms: C_15  and  O_21
REMARK    6  A    between atoms: C_16  and  O_20
REMARK    7  A    between atoms: C_17  and  O_19
REMARK    8  A    between atoms: O_22  and  C_23
REMARK    9  A    between atoms: C_23  and  C_25
REMARK   10  A    between atoms: C_27  and  O_33
REMARK   11  A    between atoms: C_28  and  O_32
REMARK   12  A    between atoms: C_29  and  O_31
REMARK                            x       y       z     vdW  Elec       q    Type
REMARK                         _______ _______ _______ _____ _____    ______ ____
ROOT
ATOM      1  C   UNL     1      50.694 163.794  42.339  0.00  0.00    +0.091 C 
ATOM      2  C   UNL     1      50.601 162.580  41.421  0.00  0.00    +0.226 C 
ATOM      3  C   UNL     1      51.998 162.250  40.855  0.00  0.00    +0.245 C 
ATOM      4  O   UNL     1      52.554 163.356  40.122  0.00  0.00    -0.480 OA
ATOM      5  C   UNL     1      52.315 164.617  40.605  0.00  0.00    +0.132 A 
ATOM      6  C   UNL     1      53.017 165.636  39.957  0.00  0.00    +0.091 A 
ATOM      7  C   UNL     1      52.891 166.947  40.395  0.00  0.00    +0.124 A 
ATOM      8  C   UNL     1      52.076 167.256  41.475  0.00  0.00    +0.091 A 
ATOM      9  C   UNL     1      51.371 166.235  42.114  0.00  0.00    +0.127 A 
ATOM     10  C   UNL     1      51.459 164.905  41.679  0.00  0.00    +0.039 A 
ENDROOT
BRANCH   3  11
ATOM     11  C   UNL     1      52.997 161.662  41.854  0.00  0.00    +0.003 A 
ATOM     12  C   UNL     1      52.960 160.275  42.115  0.00  0.00    +0.056 A 
ATOM     13  C   UNL     1      53.840 159.707  43.027  0.00  0.00    +0.162 A 
ATOM     14  C   UNL     1      54.771 160.491  43.685  0.00  0.00    +0.201 A 
ATOM     15  C   UNL     1      54.835 161.855  43.433  0.00  0.00    +0.162 A 
ATOM     16  C   UNL     1      53.958 162.444  42.524  0.00  0.00    +0.056 A 
BRANCH  15  17
ATOM     17  O   UNL     1      55.780 162.583  44.101  0.00  0.00    -0.503 OA
ATOM     18  H   UNL     1      55.712 162.368  45.049  0.00  0.00    +0.292 HD
ENDBRANCH  15  17
BRANCH  14  19
ATOM     19  O   UNL     1      55.627 159.906  44.580  0.00  0.00    -0.501 OA
ATOM     20  H   UNL     1      56.470 160.389  44.452  0.00  0.00    +0.292 HD
ENDBRANCH  14  19
BRANCH  13  21
ATOM     21  O   UNL     1      53.777 158.365  43.266  0.00  0.00    -0.503 OA
ATOM     22  H   UNL     1      52.851 158.205  43.538  0.00  0.00    +0.292 HD
ENDBRANCH  13  21
ENDBRANCH   3  11
BRANCH   9  23
ATOM     23  O   UNL     1      50.609 166.628  43.178  0.00  0.00    -0.506 OA
ATOM     24  H   UNL     1      50.625 167.593  43.267  0.00  0.00    +0.292 HD
ENDBRANCH   9  23
BRANCH   7  25
ATOM     25  O   UNL     1      53.599 167.910  39.739  0.00  0.00    -0.507 OA
ATOM     26  H   UNL     1      54.315 168.219  40.320  0.00  0.00    +0.292 HD
ENDBRANCH   7  25
BRANCH   2  27
ATOM     27  O   UNL     1      50.035 161.450  42.114  0.00  0.00    -0.453 OA
BRANCH  27  28
ATOM     28  C   UNL     1      49.145 160.709  41.412  0.00  0.00    +0.340 C 
ATOM     29  O   UNL     1      48.444 161.113  40.498  0.00  0.00    -0.245 OA
BRANCH  28  30
ATOM     30  C   UNL     1      49.120 159.302  41.889  0.00  0.00    +0.066 A 
ATOM     31  C   UNL     1      48.239 158.985  42.940  0.00  0.00    +0.064 A 
ATOM     32  C   UNL     1      48.188 157.683  43.426  0.00  0.00    +0.163 A 
ATOM     33  C   UNL     1      49.006 156.703  42.878  0.00  0.00    +0.201 A 
ATOM     34  C   UNL     1      49.879 157.016  41.845  0.00  0.00    +0.163 A 
ATOM     35  C   UNL     1      49.946 158.309  41.340  0.00  0.00    +0.064 A 
BRANCH  34  36
ATOM     36  O   UNL     1      50.685 156.050  41.316  0.00  0.00    -0.503 OA
ATOM     37  H   UNL     1      50.094 155.506  40.757  0.00  0.00    +0.292 HD
ENDBRANCH  34  36
BRANCH  33  38
ATOM     38  O   UNL     1      48.967 155.419  43.350  0.00  0.00    -0.501 OA
ATOM     39  H   UNL     1      48.024 155.166  43.286  0.00  0.00    +0.292 HD
ENDBRANCH  33  38
BRANCH  32  40
ATOM     40  O   UNL     1      47.352 157.319  44.443  0.00  0.00    -0.503 OA
ATOM     41  H   UNL     1      47.890 157.114  45.229  0.00  0.00    +0.292 HD
ENDBRANCH  32  40
ENDBRANCH  28  30
ENDBRANCH  27  28
ENDBRANCH   2  27
TORSDOF 12
ENDMDL
MODEL 4
REMARK VINA RESULT:    -7.685      2.831      5.522
REMARK INTER + INTRA:         -12.550
REMARK INTER:                 -11.244
REMARK INTRA:                  -1.306
REMARK UNBOUND:                -1.272
REMARK  Name = 
REMARK  12 active torsions:
REMARK  status: ('A' for Active; 'I' for Inactive)
REMARK    1  A    between atoms: C_2  and  O_22
REMARK    2  A    between atoms: C_3  and  C_13
REMARK    3  A    between atoms: C_7  and  O_12
REMARK    4  A    between atoms: C_9  and  O_11
REMARK    5  A    between atoms: C_15  and  O_21
REMARK    6  A    between atoms: C_16  and  O_20
REMARK    7  A    between atoms: C_17  and  O_19
REMARK    8  A    between atoms: O_22  and  C_23
REMARK    9  A    between atoms: C_23  and  C_25
REMARK   10  A    between atoms: C_27  and  O_33
REMARK   11  A    between atoms: C_28  and  O_32
REMARK   12  A    between atoms: C_29  and  O_31
REMARK                            x       y       z     vdW  Elec       q    Type
REMARK                         _______ _______ _______ _____ _____    ______ ____
ROOT
ATOM      1  C   UNL     1      55.088 160.008  40.893  0.00  0.00    +0.091 C 
ATOM      2  C   UNL     1      54.145 159.958  42.092  0.00  0.00    +0.226 C 
ATOM      3  C   UNL     1      53.977 161.376  42.677  0.00  0.00    +0.245 C 
ATOM      4  O   UNL     1      55.236 161.938  43.088  0.00  0.00    -0.480 OA
ATOM      5  C   UNL     1      56.332 161.668  42.309  0.00  0.00    +0.132 A 
ATOM      6  C   UNL     1      57.486 162.376  42.655  0.00  0.00    +0.091 A 
ATOM      7  C   UNL     1      58.642 162.220  41.904  0.00  0.00    +0.124 A 
ATOM      8  C   UNL     1      58.663 161.369  40.808  0.00  0.00    +0.091 A 
ATOM      9  C   UNL     1      57.510 160.659  40.471  0.00  0.00    +0.127 A 
ATOM     10  C   UNL     1      56.334 160.777  41.225  0.00  0.00    +0.039 A 
ENDROOT
BRANCH   3  11
ATOM     11  C   UNL     1      53.160 162.352  41.828  0.00  0.00    +0.003 A 
ATOM     12  C   UNL     1      51.834 162.642  42.214  0.00  0.00    +0.056 A 
ATOM     13  C   UNL     1      51.056 163.512  41.461  0.00  0.00    +0.162 A 
ATOM     14  C   UNL     1      51.574 164.112  40.325  0.00  0.00    +0.201 A 
ATOM     15  C   UNL     1      52.880 163.852  39.935  0.00  0.00    +0.162 A 
ATOM     16  C   UNL     1      53.676 162.980  40.677  0.00  0.00    +0.056 A 
BRANCH  15  17
ATOM     17  O   UNL     1      53.346 164.477  38.813  0.00  0.00    -0.503 OA
ATOM     18  H   UNL     1      53.420 165.429  39.006  0.00  0.00    +0.292 HD
ENDBRANCH  15  17
BRANCH  14  19
ATOM     19  O   UNL     1      50.785 164.964  39.600  0.00  0.00    -0.501 OA
ATOM     20  H   UNL     1      51.425 165.514  39.103  0.00  0.00    +0.292 HD
ENDBRANCH  14  19
BRANCH  13  21
ATOM     21  O   UNL     1      49.775 163.769  41.853  0.00  0.00    -0.503 OA
ATOM     22  H   UNL     1      49.659 163.251  42.674  0.00  0.00    +0.292 HD
ENDBRANCH  13  21
ENDBRANCH   3  11
BRANCH   9  23
ATOM     23  O   UNL     1      57.616 159.860  39.367  0.00  0.00    -0.506 OA
ATOM     24  H   UNL     1      56.916 160.071  38.729  0.00  0.00    +0.292 HD
ENDBRANCH   9  23
BRANCH   7  25
ATOM     25  O   UNL     1      59.744 162.934  42.272  0.00  0.00    -0.507 OA
ATOM     26  H   UNL     1      59.491 163.551  42.979  0.00  0.00    +0.292 HD
ENDBRANCH   7  25
BRANCH   2  27
ATOM     27  O   UNL     1      52.874 159.387  41.726  0.00  0.00    -0.453 OA
BRANCH  27  28
ATOM     28  C   UNL     1      52.239 158.683  42.693  0.00  0.00    +0.340 C 
ATOM     29  O   UNL     1      52.779 157.993  43.543  0.00  0.00    -0.245 OA
BRANCH  28  30
ATOM     30  C   UNL     1      50.766 158.855  42.606  0.00  0.00    +0.066 A 
ATOM     31  C   UNL     1      50.277 159.890  41.786  0.00  0.00    +0.064 A 
ATOM     32  C   UNL     1      48.905 160.094  41.682  0.00  0.00    +0.163 A 
ATOM     33  C   UNL     1      48.025 159.282  42.386  0.00  0.00    +0.201 A 
ATOM     34  C   UNL     1      48.507 158.265  43.198  0.00  0.00    +0.163 A 
ATOM     35  C   UNL     1      49.872 158.039  43.317  0.00  0.00    +0.064 A 
BRANCH  34  36
ATOM     36  O   UNL     1      47.637 157.476  43.893  0.00  0.00    -0.503 OA
ATOM     37  H   UNL     1      47.119 158.097  44.446  0.00  0.00    +0.292 HD
ENDBRANCH  34  36
BRANCH  33  38
ATOM     38  O   UNL     1      46.674 159.476  42.293  0.00  0.00    -0.501 OA
ATOM     39  H   UNL     1      46.324 159.168  43.153  0.00  0.00    +0.292 HD
ENDBRANCH  33  38
BRANCH  32  40
ATOM     40  O   UNL     1      48.376 161.081  40.901  0.00  0.00    -0.503 OA
ATOM     41  H   UNL     1      47.452 161.231  41.173  0.00  0.00    +0.292 HD
ENDBRANCH  32  40
ENDBRANCH  28  30
ENDBRANCH  27  28
ENDBRANCH   2  27
TORSDOF 12
ENDMDL
MODEL 5
REMARK VINA RESULT:    -7.657      0.895      1.689
REMARK INTER + INTRA:         -12.511
REMARK INTER:                 -11.445
REMARK INTRA:                  -1.065
REMARK UNBOUND:                -1.272
REMARK  Name = 
REMARK  12 active torsions:
REMARK  status: ('A' for Active; 'I' for Inactive)
REMARK    1  A    between atoms: C_2  and  O_22
REMARK    2  A    between atoms: C_3  and  C_13
REMARK    3  A    between atoms: C_7  and  O_12
REMARK    4  A    between atoms: C_9  and  O_11
REMARK    5  A    between atoms: C_15  and  O_21
REMARK    6  A    between atoms: C_16  and  O_20
REMARK    7  A    between atoms: C_17  and  O_19
REMARK    8  A    between atoms: O_22  and  C_23
REMARK    9  A    between atoms: C_23  and  C_25
REMARK   10  A    between atoms: C_27  and  O_33
REMARK   11  A    between atoms: C_28  and  O_32
REMARK   12  A    between atoms: C_29  and  O_31
REMARK                            x       y       z     vdW  Elec       q    Type
REMARK                         _______ _______ _______ _____ _____    ______ ____
ROOT
ATOM      1  C   UNL     1      52.182 164.757  40.237  0.00  0.00    +0.091 C 
ATOM      2  C   UNL     1      52.366 163.909  41.493  0.00  0.00    +0.226 C 
ATOM      3  C   UNL     1      51.304 164.300  42.541  0.00  0.00    +0.245 C 
ATOM      4  O   UNL     1      51.388 165.692  42.895  0.00  0.00    -0.480 OA
ATOM      5  C   UNL     1      51.689 166.580  41.894  0.00  0.00    +0.132 A 
ATOM      6  C   UNL     1      51.588 167.926  42.254  0.00  0.00    +0.091 A 
ATOM      7  C   UNL     1      51.822 168.913  41.307  0.00  0.00    +0.124 A 
ATOM      8  C   UNL     1      52.152 168.575  40.002  0.00  0.00    +0.091 A 
ATOM      9  C   UNL     1      52.259 167.230  39.649  0.00  0.00    +0.127 A 
ATOM     10  C   UNL     1      52.053 166.210  40.590  0.00  0.00    +0.039 A 
ENDROOT
BRANCH   3  11
ATOM     11  C   UNL     1      49.870 163.871  42.226  0.00  0.00    +0.003 A 
ATOM     12  C   UNL     1      49.087 164.688  41.383  0.00  0.00    +0.056 A 
ATOM     13  C   UNL     1      47.775 164.340  41.086  0.00  0.00    +0.162 A 
ATOM     14  C   UNL     1      47.222 163.182  41.605  0.00  0.00    +0.201 A 
ATOM     15  C   UNL     1      47.979 162.356  42.425  0.00  0.00    +0.162 A 
ATOM     16  C   UNL     1      49.296 162.690  42.737  0.00  0.00    +0.056 A 
BRANCH  15  17
ATOM     17  O   UNL     1      47.389 161.219  42.903  0.00  0.00    -0.503 OA
ATOM     18  H   UNL     1      46.690 160.955  42.277  0.00  0.00    +0.292 HD
ENDBRANCH  15  17
BRANCH  14  19
ATOM     19  O   UNL     1      45.926 162.863  41.298  0.00  0.00    -0.501 OA
ATOM     20  H   UNL     1      45.912 161.883  41.319  0.00  0.00    +0.292 HD
ENDBRANCH  14  19
BRANCH  13  21
ATOM     21  O   UNL     1      47.038 165.152  40.275  0.00  0.00    -0.503 OA
ATOM     22  H   UNL     1      46.422 164.547  39.813  0.00  0.00    +0.292 HD
ENDBRANCH  13  21
ENDBRANCH   3  11
BRANCH   9  23
ATOM     23  O   UNL     1      52.570 166.990  38.340  0.00  0.00    -0.506 OA
ATOM     24  H   UNL     1      52.077 167.592  37.761  0.00  0.00    +0.292 HD
ENDBRANCH   9  23
BRANCH   7  25
ATOM     25  O   UNL     1      51.705 170.214  41.698  0.00  0.00    -0.507 OA
ATOM     26  H   UNL     1      51.315 170.723  40.968  0.00  0.00    +0.292 HD
ENDBRANCH   7  25
BRANCH   2  27
ATOM     27  O   UNL     1      52.303 162.503  41.181  0.00  0.00    -0.453 OA
BRANCH  27  28
ATOM     28  C   UNL     1      53.169 161.707  41.852  0.00  0.00    +0.340 C 
ATOM     29  O   UNL     1      54.293 162.020  42.211  0.00  0.00    -0.245 OA
BRANCH  28  30
ATOM     30  C   UNL     1      52.577 160.370  42.117  0.00  0.00    +0.066 A 
ATOM     31  C   UNL     1      51.173 160.268  42.121  0.00  0.00    +0.064 A 
ATOM     32  C   UNL     1      50.574 159.038  42.373  0.00  0.00    +0.163 A 
ATOM     33  C   UNL     1      51.359 157.919  42.624  0.00  0.00    +0.201 A 
ATOM     34  C   UNL     1      52.744 158.021  42.625  0.00  0.00    +0.163 A 
ATOM     35  C   UNL     1      53.366 159.238  42.372  0.00  0.00    +0.064 A 
BRANCH  34  36
ATOM     36  O   UNL     1      53.509 156.921  42.879  0.00  0.00    -0.503 OA
ATOM     37  H   UNL     1      53.176 156.573  43.732  0.00  0.00    +0.292 HD
ENDBRANCH  34  36
BRANCH  33  38
ATOM     38  O   UNL     1      50.781 156.706  42.876  0.00  0.00    -0.501 OA
ATOM     39  H   UNL     1      51.498 156.058  42.723  0.00  0.00    +0.292 HD
ENDBRANCH  33  38
BRANCH  32  40
ATOM     40  O   UNL     1      49.218 158.880  42.389  0.00  0.00    -0.503 OA
ATOM     41  H   UNL     1      48.941 158.653  43.295  0.00  0.00    +0.292 HD
ENDBRANCH  32  40
ENDBRANCH  28  30
ENDBRANCH  27  28
ENDBRANCH   2  27
TORSDOF 12
ENDMDL
MODEL 6
REMARK VINA RESULT:    -7.617      2.065      5.078
REMARK INTER + INTRA:         -12.451
REMARK INTER:                 -11.631
REMARK INTRA:                  -0.820
REMARK UNBOUND:                -1.272
REMARK  Name = 
REMARK  12 active torsions:
REMARK  status: ('A' for Active; 'I' for Inactive)
REMARK    1  A    between atoms: C_2  and  O_22
REMARK    2  A    between atoms: C_3  and  C_13
REMARK    3  A    between atoms: C_7  and  O_12
REMARK    4  A    between atoms: C_9  and  O_11
REMARK    5  A    between atoms: C_15  and  O_21
REMARK    6  A    between atoms: C_16  and  O_20
REMARK    7  A    between atoms: C_17  and  O_19
REMARK    8  A    between atoms: O_22  and  C_23
REMARK    9  A    between atoms: C_23  and  C_25
REMARK   10  A    between atoms: C_27  and  O_33
REMARK   11  A    between atoms: C_28  and  O_32
REMARK   12  A    between atoms: C_29  and  O_31
REMARK                            x       y       z     vdW  Elec       q    Type
REMARK                         _______ _______ _______ _____ _____    ______ ____
ROOT
ATOM      1  C   UNL     1      50.022 164.435  42.921  0.00  0.00    +0.091 C 
ATOM      2  C   UNL     1      49.740 163.933  41.507  0.00  0.00    +0.226 C 
ATOM      3  C   UNL     1      50.493 164.811  40.487  0.00  0.00    +0.245 C 
ATOM      4  O   UNL     1      50.108 166.194  40.583  0.00  0.00    -0.480 OA
ATOM      5  C   UNL     1      49.863 166.695  41.836  0.00  0.00    +0.132 A 
ATOM      6  C   UNL     1      49.663 168.077  41.887  0.00  0.00    +0.091 A 
ATOM      7  C   UNL     1      49.458 168.700  43.110  0.00  0.00    +0.124 A 
ATOM      8  C   UNL     1      49.453 167.963  44.286  0.00  0.00    +0.091 A 
ATOM      9  C   UNL     1      49.646 166.582  44.229  0.00  0.00    +0.127 A 
ATOM     10  C   UNL     1      49.832 165.921  43.006  0.00  0.00    +0.039 A 
ENDROOT
BRANCH   3  11
ATOM     11  C   UNL     1      52.013 164.638  40.455  0.00  0.00    +0.003 A 
ATOM     12  C   UNL     1      52.818 165.758  40.158  0.00  0.00    +0.056 A 
ATOM     13  C   UNL     1      54.200 165.637  40.104  0.00  0.00    +0.162 A 
ATOM     14  C   UNL     1      54.808 164.417  40.351  0.00  0.00    +0.201 A 
ATOM     15  C   UNL     1      54.036 163.305  40.659  0.00  0.00    +0.162 A 
ATOM     16  C   UNL     1      52.647 163.406  40.715  0.00  0.00    +0.056 A 
BRANCH  15  17
ATOM     17  O   UNL     1      54.685 162.127  40.904  0.00  0.00    -0.503 OA
ATOM     18  H   UNL     1      54.929 162.107  41.847  0.00  0.00    +0.292 HD
ENDBRANCH  15  17
BRANCH  14  19
ATOM     19  O   UNL     1      56.172 164.325  40.291  0.00  0.00    -0.501 OA
ATOM     20  H   UNL     1      56.449 165.168  39.876  0.00  0.00    +0.292 HD
ENDBRANCH  14  19
BRANCH  13  21
ATOM     21  O   UNL     1      54.955 166.734  39.807  0.00  0.00    -0.503 OA
ATOM     22  H   UNL     1      54.302 167.442  39.631  0.00  0.00    +0.292 HD
ENDBRANCH  13  21
ENDBRANCH   3  11
BRANCH   9  23
ATOM     23  O   UNL     1      49.645 165.941  45.436  0.00  0.00    -0.506 OA
ATOM     24  H   UNL     1      49.864 165.003  45.321  0.00  0.00    +0.292 HD
ENDBRANCH   9  23
BRANCH   7  25
ATOM     25  O   UNL     1      49.273 170.051  43.115  0.00  0.00    -0.507 OA
ATOM     26  H   UNL     1      49.301 170.371  42.197  0.00  0.00    +0.292 HD
ENDBRANCH   7  25
BRANCH   2  27
ATOM     27  O   UNL     1      50.100 162.544  41.371  0.00  0.00    -0.453 OA
BRANCH  27  28
ATOM     28  C   UNL     1      49.075 161.683  41.164  0.00  0.00    +0.340 C 
ATOM     29  O   UNL     1      48.096 161.894  40.466  0.00  0.00    -0.245 OA
BRANCH  28  30
ATOM     30  C   UNL     1      49.284 160.410  41.901  0.00  0.00    +0.066 A 
ATOM     31  C   UNL     1      50.611 159.998  42.128  0.00  0.00    +0.064 A 
ATOM     32  C   UNL     1      50.854 158.808  42.805  0.00  0.00    +0.163 A 
ATOM     33  C   UNL     1      49.793 158.030  43.251  0.00  0.00    +0.201 A 
ATOM     34  C   UNL     1      48.484 158.434  43.022  0.00  0.00    +0.163 A 
ATOM     35  C   UNL     1      48.215 159.620  42.351  0.00  0.00    +0.064 A 
BRANCH  34  36
ATOM     36  O   UNL     1      47.446 157.661  43.455  0.00  0.00    -0.503 OA
ATOM     37  H   UNL     1      46.766 157.734  42.755  0.00  0.00    +0.292 HD
ENDBRANCH  34  36
BRANCH  33  38
ATOM     38  O   UNL     1      50.021 156.856  43.915  0.00  0.00    -0.501 OA
ATOM     39  H   UNL     1      50.792 157.046  44.487  0.00  0.00    +0.292 HD
ENDBRANCH  33  38
BRANCH  32  40
ATOM     40  O   UNL     1      52.120 158.360  43.054  0.00  0.00    -0.503 OA
ATOM     41  H   UNL     1      52.112 157.386  43.047  0.00  0.00    +0.292 HD
ENDBRANCH  32  40
ENDBRANCH  28  30
ENDBRANCH  27  28
ENDBRANCH   2  27
TORSDOF 12
ENDMDL
MODEL 7
REMARK VINA RESULT:    -7.581      2.062      4.883
REMARK INTER + INTRA:         -12.398
REMARK INTER:                 -11.637
REMARK INTRA:                  -0.762
REMARK UNBOUND:                -1.272
REMARK  Name = 
REMARK  12 active torsions:
REMARK  status: ('A' for Active; 'I' for Inactive)
REMARK    1  A    between atoms: C_2  and  O_22
REMARK    2  A    between atoms: C_3  and  C_13
REMARK    3  A    between atoms: C_7  and  O_12
REMARK    4  A    between atoms: C_9  and  O_11
REMARK    5  A    between atoms: C_15  and  O_21
REMARK    6  A    between atoms: C_16  and  O_20
REMARK    7  A    between atoms: C_17  and  O_19
REMARK    8  A    between atoms: O_22  and  C_23
REMARK    9  A    between atoms: C_23  and  C_25
REMARK   10  A    between atoms: C_27  and  O_33
REMARK   11  A    between atoms: C_28  and  O_32
REMARK   12  A    between atoms: C_29  and  O_31
REMARK                            x       y       z     vdW  Elec       q    Type
REMARK                         _______ _______ _______ _____ _____    ______ ____
ROOT
ATOM      1  C   UNL     1      50.137 164.371  43.012  0.00  0.00    +0.091 C 
ATOM      2  C   UNL     1      49.865 163.804  41.621  0.00  0.00    +0.226 C 
ATOM      3  C   UNL     1      50.586 164.663  40.562  0.00  0.00    +0.245 C 
ATOM      4  O   UNL     1      50.158 166.037  40.605  0.00  0.00    -0.480 OA
ATOM      5  C   UNL     1      49.904 166.580  41.839  0.00  0.00    +0.132 A 
ATOM      6  C   UNL     1      49.661 167.955  41.835  0.00  0.00    +0.091 A 
ATOM      7  C   UNL     1      49.442 168.620  43.033  0.00  0.00    +0.124 A 
ATOM      8  C   UNL     1      49.464 167.932  44.238  0.00  0.00    +0.091 A 
ATOM      9  C   UNL     1      49.700 166.556  44.236  0.00  0.00    +0.127 A 
ATOM     10  C   UNL     1      49.901 165.853  43.039  0.00  0.00    +0.039 A 
ENDROOT
BRANCH   3  11
ATOM     11  C   UNL     1      52.110 164.536  40.529  0.00  0.00    +0.003 A 
ATOM     12  C   UNL     1      52.880 165.676  40.217  0.00  0.00    +0.056 A 
ATOM     13  C   UNL     1      54.266 165.596  40.162  0.00  0.00    +0.162 A 
ATOM     14  C   UNL     1      54.910 164.399  40.422  0.00  0.00    +0.201 A 
ATOM     15  C   UNL     1      54.173 163.268  40.745  0.00  0.00    +0.162 A 
ATOM     16  C   UNL     1      52.781 163.327  40.802  0.00  0.00    +0.056 A 
BRANCH  15  17
ATOM     17  O   UNL     1      54.858 162.113  41.002  0.00  0.00    -0.503 OA
ATOM     18  H   UNL     1      55.543 162.309  41.666  0.00  0.00    +0.292 HD
ENDBRANCH  15  17
BRANCH  14  19
ATOM     19  O   UNL     1      56.277 164.346  40.360  0.00  0.00    -0.501 OA
ATOM     20  H   UNL     1      56.560 164.422  41.295  0.00  0.00    +0.292 HD
ENDBRANCH  14  19
BRANCH  13  21
ATOM     21  O   UNL     1      54.986 166.712  39.851  0.00  0.00    -0.503 OA
ATOM     22  H   UNL     1      54.354 167.290  39.378  0.00  0.00    +0.292 HD
ENDBRANCH  13  21
ENDBRANCH   3  11
BRANCH   9  23
ATOM     23  O   UNL     1      49.724 165.964  45.467  0.00  0.00    -0.506 OA
ATOM     24  H   UNL     1      50.499 165.388  45.550  0.00  0.00    +0.292 HD
ENDBRANCH   9  23
BRANCH   7  25
ATOM     25  O   UNL     1      49.216 169.964  42.986  0.00  0.00    -0.507 OA
ATOM     26  H   UNL     1      48.607 170.202  43.705  0.00  0.00    +0.292 HD
ENDBRANCH   7  25
BRANCH   2  27
ATOM     27  O   UNL     1      50.266 162.422  41.538  0.00  0.00    -0.453 OA
BRANCH  27  28
ATOM     28  C   UNL     1      49.283 161.535  41.257  0.00  0.00    +0.340 C 
ATOM     29  O   UNL     1      48.327 161.737  40.526  0.00  0.00    -0.245 OA
BRANCH  28  30
ATOM     30  C   UNL     1      49.509 160.242  41.955  0.00  0.00    +0.066 A 
ATOM     31  C   UNL     1      48.377 159.547  42.420  0.00  0.00    +0.064 A 
ATOM     32  C   UNL     1      48.540 158.337  43.087  0.00  0.00    +0.163 A 
ATOM     33  C   UNL     1      49.813 157.822  43.296  0.00  0.00    +0.201 A 
ATOM     34  C   UNL     1      50.930 158.511  42.841  0.00  0.00    +0.163 A 
ATOM     35  C   UNL     1      50.793 159.719  42.169  0.00  0.00    +0.064 A 
BRANCH  34  36
ATOM     36  O   UNL     1      52.178 158.004  43.055  0.00  0.00    -0.503 OA
ATOM     37  H   UNL     1      52.303 158.039  44.026  0.00  0.00    +0.292 HD
ENDBRANCH  34  36
BRANCH  33  38
ATOM     38  O   UNL     1      49.985 156.635  43.953  0.00  0.00    -0.501 OA
ATOM     39  H   UNL     1      49.129 156.173  43.848  0.00  0.00    +0.292 HD
ENDBRANCH  33  38
BRANCH  32  40
ATOM     40  O   UNL     1      47.478 157.620  43.560  0.00  0.00    -0.503 OA
ATOM     41  H   UNL     1      46.681 157.879  43.062  0.00  0.00    +0.292 HD
ENDBRANCH  32  40
ENDBRANCH  28  30
ENDBRANCH  27  28
ENDBRANCH   2  27
TORSDOF 12
ENDMDL
MODEL 8
REMARK VINA RESULT:    -7.561      1.940      4.779
REMARK INTER + INTRA:         -12.369
REMARK INTER:                 -11.424
REMARK INTRA:                  -0.945
REMARK UNBOUND:                -1.272
REMARK  Name = 
REMARK  12 active torsions:
REMARK  status: ('A' for Active; 'I' for Inactive)
REMARK    1  A    between atoms: C_2  and  O_22
REMARK    2  A    between atoms: C_3  and  C_13
REMARK    3  A    between atoms: C_7  and  O_12
REMARK    4  A    between atoms: C_9  and  O_11
REMARK    5  A    between atoms: C_15  and  O_21
REMARK    6  A    between atoms: C_16  and  O_20
REMARK    7  A    between atoms: C_17  and  O_19
REMARK    8  A    between atoms: O_22  and  C_23
REMARK    9  A    between atoms: C_23  and  C_25
REMARK   10  A    between atoms: C_27  and  O_33
REMARK   11  A    between atoms: C_28  and  O_32
REMARK   12  A    between atoms: C_29  and  O_31
REMARK                            x       y       z     vdW  Elec       q    Type
REMARK                         _______ _______ _______ _____ _____    ______ ____
ROOT
ATOM      1  C   UNL     1      50.162 163.803  42.476  0.00  0.00    +0.091 C 
ATOM      2  C   UNL     1      50.252 162.666  41.462  0.00  0.00    +0.226 C 
ATOM      3  C   UNL     1      51.670 162.623  40.857  0.00  0.00    +0.245 C 
ATOM      4  O   UNL     1      52.013 163.862  40.210  0.00  0.00    -0.480 OA
ATOM      5  C   UNL     1      51.577 165.022  40.797  0.00  0.00    +0.132 A 
ATOM      6  C   UNL     1      52.081 166.194  40.227  0.00  0.00    +0.091 A 
ATOM      7  C   UNL     1      51.747 167.426  40.771  0.00  0.00    +0.124 A 
ATOM      8  C   UNL     1      50.918 167.505  41.882  0.00  0.00    +0.091 A 
ATOM      9  C   UNL     1      50.411 166.333  42.443  0.00  0.00    +0.127 A 
ATOM     10  C   UNL     1      50.712 165.075  41.900  0.00  0.00    +0.039 A 
ENDROOT
BRANCH   3  11
ATOM     11  C   UNL     1      52.778 162.137  41.793  0.00  0.00    +0.003 A 
ATOM     12  C   UNL     1      53.609 163.092  42.415  0.00  0.00    +0.056 A 
ATOM     13  C   UNL     1      54.636 162.690  43.260  0.00  0.00    +0.162 A 
ATOM     14  C   UNL     1      54.851 161.345  43.510  0.00  0.00    +0.201 A 
ATOM     15  C   UNL     1      54.036 160.388  42.920  0.00  0.00    +0.162 A 
ATOM     16  C   UNL     1      53.003 160.773  42.067  0.00  0.00    +0.056 A 
BRANCH  15  17
ATOM     17  O   UNL     1      54.284 159.075  43.208  0.00  0.00    -0.503 OA
ATOM     18  H   UNL     1      54.079 158.928  44.148  0.00  0.00    +0.292 HD
ENDBRANCH  15  17
BRANCH  14  19
ATOM     19  O   UNL     1      55.870 160.974  44.345  0.00  0.00    -0.501 OA
ATOM     20  H   UNL     1      56.661 161.405  43.960  0.00  0.00    +0.292 HD
ENDBRANCH  14  19
BRANCH  13  21
ATOM     21  O   UNL     1      55.430 163.634  43.842  0.00  0.00    -0.503 OA
ATOM     22  H   UNL     1      56.331 163.433  43.518  0.00  0.00    +0.292 HD
ENDBRANCH  13  21
ENDBRANCH   3  11
BRANCH   9  23
ATOM     23  O   UNL     1      49.620 166.505  43.544  0.00  0.00    -0.506 OA
ATOM     24  H   UNL     1      49.256 165.655  43.835  0.00  0.00    +0.292 HD
ENDBRANCH   9  23
BRANCH   7  25
ATOM     25  O   UNL     1      52.266 168.544  40.188  0.00  0.00    -0.507 OA
ATOM     26  H   UNL     1      51.981 169.320  40.699  0.00  0.00    +0.292 HD
ENDBRANCH   7  25
BRANCH   2  27
ATOM     27  O   UNL     1      49.902 161.405  42.067  0.00  0.00    -0.453 OA
BRANCH  27  28
ATOM     28  C   UNL     1      49.066 160.616  41.352  0.00  0.00    +0.340 C 
ATOM     29  O   UNL     1      48.394 160.970  40.396  0.00  0.00    -0.245 OA
BRANCH  28  30
ATOM     30  C   UNL     1      49.061 159.224  41.872  0.00  0.00    +0.066 A 
ATOM     31  C   UNL     1      48.220 158.939  42.965  0.00  0.00    +0.064 A 
ATOM     32  C   UNL     1      48.190 157.652  43.492  0.00  0.00    +0.163 A 
ATOM     33  C   UNL     1      48.989 156.656  42.944  0.00  0.00    +0.201 A 
ATOM     34  C   UNL     1      49.822 156.938  41.869  0.00  0.00    +0.163 A 
ATOM     35  C   UNL     1      49.867 158.215  41.323  0.00  0.00    +0.064 A 
BRANCH  34  36
ATOM     36  O   UNL     1      50.609 155.957  41.341  0.00  0.00    -0.503 OA
ATOM     37  H   UNL     1      51.500 156.357  41.272  0.00  0.00    +0.292 HD
ENDBRANCH  34  36
BRANCH  33  38
ATOM     38  O   UNL     1      48.969 155.388  43.456  0.00  0.00    -0.501 OA
ATOM     39  H   UNL     1      48.630 154.835  42.723  0.00  0.00    +0.292 HD
ENDBRANCH  33  38
BRANCH  32  40
ATOM     40  O   UNL     1      47.393 157.320  44.550  0.00  0.00    -0.503 OA
ATOM     41  H   UNL     1      47.499 157.996  45.244  0.00  0.00    +0.292 HD
ENDBRANCH  32  40
ENDBRANCH  28  30
ENDBRANCH  27  28
ENDBRANCH   2  27
TORSDOF 12
ENDMDL
MODEL 9
REMARK VINA RESULT:    -7.357      2.425      6.958
REMARK INTER + INTRA:         -12.070
REMARK INTER:                 -11.156
REMARK INTRA:                  -0.914
REMARK UNBOUND:                -1.272
REMARK  Name = 
REMARK  12 active torsions:
REMARK  status: ('A' for Active; 'I' for Inactive)
REMARK    1  A    between atoms: C_2  and  O_22
REMARK    2  A    between atoms: C_3  and  C_13
REMARK    3  A    between atoms: C_7  and  O_12
REMARK    4  A    between atoms: C_9  and  O_11
REMARK    5  A    between atoms: C_15  and  O_21
REMARK    6  A    between atoms: C_16  and  O_20
REMARK    7  A    between atoms: C_17  and  O_19
REMARK    8  A    between atoms: O_22  and  C_23
REMARK    9  A    between atoms: C_23  and  C_25
REMARK   10  A    between atoms: C_27  and  O_33
REMARK   11  A    between atoms: C_28  and  O_32
REMARK   12  A    between atoms: C_29  and  O_31
REMARK                            x       y       z     vdW  Elec       q    Type
REMARK                         _______ _______ _______ _____ _____    ______ ____
ROOT
ATOM      1  C   UNL     1      54.416 162.156  43.248  0.00  0.00    +0.091 C 
ATOM      2  C   UNL     1      53.699 162.159  41.901  0.00  0.00    +0.226 C 
ATOM      3  C   UNL     1      53.769 160.752  41.274  0.00  0.00    +0.245 C 
ATOM      4  O   UNL     1      55.128 160.317  41.085  0.00  0.00    -0.480 OA
ATOM      5  C   UNL     1      56.040 160.659  42.051  0.00  0.00    +0.132 A 
ATOM      6  C   UNL     1      57.297 160.069  41.906  0.00  0.00    +0.091 A 
ATOM      7  C   UNL     1      58.283 160.303  42.853  0.00  0.00    +0.124 A 
ATOM      8  C   UNL     1      58.031 161.118  43.949  0.00  0.00    +0.091 A 
ATOM      9  C   UNL     1      56.776 161.711  44.085  0.00  0.00    +0.127 A 
ATOM     10  C   UNL     1      55.767 161.512  43.131  0.00  0.00    +0.039 A 
ENDROOT
BRANCH   3  11
ATOM     11  C   UNL     1      52.911 159.680  41.948  0.00  0.00    +0.003 A 
ATOM     12  C   UNL     1      53.506 158.447  42.287  0.00  0.00    +0.056 A 
ATOM     13  C   UNL     1      52.756 157.443  42.886  0.00  0.00    +0.162 A 
ATOM     14  C   UNL     1      51.415 157.644  43.167  0.00  0.00    +0.201 A 
ATOM     15  C   UNL     1      50.812 158.855  42.856  0.00  0.00    +0.162 A 
ATOM     16  C   UNL     1      51.548 159.873  42.251  0.00  0.00    +0.056 A 
BRANCH  15  17
ATOM     17  O   UNL     1      49.488 159.005  43.163  0.00  0.00    -0.503 OA
ATOM     18  H   UNL     1      49.404 159.757  43.777  0.00  0.00    +0.292 HD
ENDBRANCH  15  17
BRANCH  14  19
ATOM     19  O   UNL     1      50.697 156.638  43.757  0.00  0.00    -0.501 OA
ATOM     20  H   UNL     1      50.536 156.964  44.667  0.00  0.00    +0.292 HD
ENDBRANCH  14  19
BRANCH  13  21
ATOM     21  O   UNL     1      53.355 156.258  43.196  0.00  0.00    -0.503 OA
ATOM     22  H   UNL     1      53.947 156.075  42.439  0.00  0.00    +0.292 HD
ENDBRANCH  13  21
ENDBRANCH   3  11
BRANCH   9  23
ATOM     23  O   UNL     1      56.610 162.480  45.203  0.00  0.00    -0.506 OA
ATOM     24  H   UNL     1      55.759 162.285  45.624  0.00  0.00    +0.292 HD
ENDBRANCH   9  23
BRANCH   7  25
ATOM     25  O   UNL     1      59.495 159.702  42.677  0.00  0.00    -0.507 OA
ATOM     26  H   UNL     1      60.148 160.383  42.444  0.00  0.00    +0.292 HD
ENDBRANCH   7  25
BRANCH   2  27
ATOM     27  O   UNL     1      52.335 162.603  42.043  0.00  0.00    -0.453 OA
BRANCH  27  28
ATOM     28  C   UNL     1      51.825 163.297  40.998  0.00  0.00    +0.340 C 
ATOM     29  O   UNL     1      52.471 163.796  40.090  0.00  0.00    -0.245 OA
BRANCH  28  30
ATOM     30  C   UNL     1      50.344 163.383  41.079  0.00  0.00    +0.066 A 
ATOM     31  C   UNL     1      49.661 162.309  41.682  0.00  0.00    +0.064 A 
ATOM     32  C   UNL     1      48.273 162.341  41.772  0.00  0.00    +0.163 A 
ATOM     33  C   UNL     1      47.567 163.425  41.264  0.00  0.00    +0.201 A 
ATOM     34  C   UNL     1      48.241 164.481  40.665  0.00  0.00    +0.163 A 
ATOM     35  C   UNL     1      49.626 164.474  40.566  0.00  0.00    +0.064 A 
BRANCH  34  36
ATOM     36  O   UNL     1      47.541 165.539  40.162  0.00  0.00    -0.503 OA
ATOM     37  H   UNL     1      47.356 165.300  39.231  0.00  0.00    +0.292 HD
ENDBRANCH  34  36
BRANCH  33  38
ATOM     38  O   UNL     1      46.202 163.465  41.344  0.00  0.00    -0.501 OA
ATOM     39  H   UNL     1      46.020 164.062  42.099  0.00  0.00    +0.292 HD
ENDBRANCH  33  38
BRANCH  32  40
ATOM     40  O   UNL     1      47.559 161.329  42.347  0.00  0.00    -0.503 OA
ATOM     41  H   UNL     1      46.615 161.461  42.145  0.00  0.00    +0.292 HD
ENDBRANCH  32  40
ENDBRANCH  28  30
ENDBRANCH  27  28
ENDBRANCH   2  27
TORSDOF 12
ENDMDL
