MODEL 1
REMARK VINA RESULT:    -8.654      0.000      0.000
REMARK INTER + INTRA:         -10.486
REMARK INTER:                 -10.171
REMARK INTRA:                  -0.315
REMARK UNBOUND:                -0.315
REMARK  Name = 
REMARK  5 active torsions:
REMARK  status: ('A' for Active; 'I' for Inactive)
REMARK    1  A    between atoms: C_3  and  O_21
REMARK    2  A    between atoms: C_4  and  O_20
REMARK    3  A    between atoms: C_6  and  C_7
REMARK    4  A    between atoms: C_8  and  O_19
REMARK    5  A    between atoms: C_15  and  O_18
REMARK                            x       y       z     vdW  Elec       q    Type
REMARK                         _______ _______ _______ _____ _____    ______ ____
ROOT
ATOM      1  C   UNL     1      49.800 157.919  43.516  0.00  0.00    +0.181 A 
ATOM      2  C   UNL     1      51.018 158.404  43.212  0.00  0.00    +0.208 A 
ATOM      3  C   UNL     1      51.111 159.665  42.436  0.00  0.00    +0.234 A 
ATOM      4  O   UNL     1      52.213 160.125  42.148  0.00  0.00    -0.283 OA
ATOM      5  C   UNL     1      49.849 160.304  42.049  0.00  0.00    +0.068 A 
ATOM      6  C   UNL     1      48.656 159.696  42.424  0.00  0.00    +0.143 A 
ATOM      7  O   UNL     1      48.607 158.526  43.138  0.00  0.00    -0.451 OA
ATOM      8  C   UNL     1      47.441 160.278  42.070  0.00  0.00    +0.092 A 
ATOM      9  C   UNL     1      47.436 161.465  41.344  0.00  0.00    +0.120 A 
ATOM     10  C   UNL     1      48.627 162.082  40.964  0.00  0.00    +0.046 A 
ATOM     11  C   UNL     1      49.844 161.497  41.319  0.00  0.00    +0.019 A 
ENDROOT
BRANCH   1  17
ATOM     12  C   UNL     1      49.675 155.405  43.648  0.00  0.00    +0.015 A 
ATOM     13  C   UNL     1      49.497 154.223  44.377  0.00  0.00    +0.050 A 
ATOM     14  C   UNL     1      49.244 154.302  45.739  0.00  0.00    +0.158 A 
ATOM     15  C   UNL     1      49.170 155.541  46.368  0.00  0.00    +0.159 A 
ATOM     16  C   UNL     1      49.345 156.717  45.651  0.00  0.00    +0.060 A 
ATOM     17  C   UNL     1      49.592 156.664  44.271  0.00  0.00    +0.025 A 
BRANCH  15  18
ATOM     18  O   UNL     1      48.924 155.609  47.710  0.00  0.00    -0.503 OA
ATOM     19  H   UNL     1      49.075 156.548  47.939  0.00  0.00    +0.292 HD
ENDBRANCH  15  18
BRANCH  14  20
ATOM     20  O   UNL     1      49.060 153.186  46.507  0.00  0.00    -0.503 OA
ATOM     21  H   UNL     1      48.489 153.427  47.256  0.00  0.00    +0.292 HD
ENDBRANCH  14  20
ENDBRANCH   1  17
BRANCH   9  22
ATOM     22  O   UNL     1      46.227 162.002  41.017  0.00  0.00    -0.507 OA
ATOM     23  H   UNL     1      45.558 161.688  41.649  0.00  0.00    +0.292 HD
ENDBRANCH   9  22
BRANCH   2  24
ATOM     24  O   UNL     1      52.212 157.798  43.560  0.00  0.00    -0.501 OA
ATOM     25  H   UNL     1      52.699 157.697  42.715  0.00  0.00    +0.292 HD
ENDBRANCH   2  24
TORSDOF 5
ENDMDL
MODEL 2
REMARK VINA RESULT:    -8.635      1.994      2.965
REMARK INTER + INTRA:         -10.465
REMARK INTER:                 -10.224
REMARK INTRA:                  -0.241
REMARK UNBOUND:                -0.315
REMARK  Name = 
REMARK  5 active torsions:
REMARK  status: ('A' for Active; 'I' for Inactive)
REMARK    1  A    between atoms: C_3  and  O_21
REMARK    2  A    between atoms: C_4  and  O_20
REMARK    3  A    between atoms: C_6  and  C_7
REMARK    4  A    between atoms: C_8  and  O_19
REMARK    5  A    between atoms: C_15  and  O_18
REMARK                            x       y       z     vdW  Elec       q    Type
REMARK                         _______ _______ _______ _____ _____    ______ ____
ROOT
ATOM      1  C   UNL     1      49.747 159.626  42.015  0.00  0.00    +0.181 A 
ATOM      2  C   UNL     1      50.846 160.381  42.204  0.00  0.00    +0.208 A 
ATOM      3  C   UNL     1      50.829 161.792  41.747  0.00  0.00    +0.234 A 
ATOM      4  O   UNL     1      51.820 162.499  41.909  0.00  0.00    -0.283 OA
ATOM      5  C   UNL     1      49.596 162.272  41.112  0.00  0.00    +0.068 A 
ATOM      6  C   UNL     1      48.533 161.387  40.975  0.00  0.00    +0.143 A 
ATOM      7  O   UNL     1      48.586 160.086  41.405  0.00  0.00    -0.451 OA
ATOM      8  C   UNL     1      47.350 161.813  40.376  0.00  0.00    +0.092 A 
ATOM      9  C   UNL     1      47.247 163.124  39.921  0.00  0.00    +0.120 A 
ATOM     10  C   UNL     1      48.307 164.019  40.054  0.00  0.00    +0.046 A 
ATOM     11  C   UNL     1      49.492 163.590  40.655  0.00  0.00    +0.019 A 
ENDROOT
BRANCH   1  17
ATOM     12  C   UNL     1      48.820 157.783  43.463  0.00  0.00    +0.015 A 
ATOM     13  C   UNL     1      48.732 156.433  43.822  0.00  0.00    +0.050 A 
ATOM     14  C   UNL     1      49.483 155.498  43.123  0.00  0.00    +0.158 A 
ATOM     15  C   UNL     1      50.311 155.902  42.081  0.00  0.00    +0.159 A 
ATOM     16  C   UNL     1      50.404 157.240  41.721  0.00  0.00    +0.060 A 
ATOM     17  C   UNL     1      49.662 158.205  42.418  0.00  0.00    +0.025 A 
BRANCH  15  18
ATOM     18  O   UNL     1      51.044 154.975  41.396  0.00  0.00    -0.503 OA
ATOM     19  H   UNL     1      51.974 155.197  41.603  0.00  0.00    +0.292 HD
ENDBRANCH  15  18
BRANCH  14  20
ATOM     20  O   UNL     1      49.442 154.165  43.424  0.00  0.00    -0.503 OA
ATOM     21  H   UNL     1      50.169 153.973  44.042  0.00  0.00    +0.292 HD
ENDBRANCH  14  20
ENDBRANCH   1  17
BRANCH   9  22
ATOM     22  O   UNL     1      46.072 163.501  39.340  0.00  0.00    -0.507 OA
ATOM     23  H   UNL     1      45.366 162.902  39.633  0.00  0.00    +0.292 HD
ENDBRANCH   9  22
BRANCH   2  24
ATOM     24  O   UNL     1      52.017 159.929  42.786  0.00  0.00    -0.501 OA
ATOM     25  H   UNL     1      52.285 160.646  43.399  0.00  0.00    +0.292 HD
ENDBRANCH   2  24
TORSDOF 5
ENDMDL
MODEL 3
REMARK VINA RESULT:    -8.406      1.965      3.925
REMARK INTER + INTRA:         -10.195
REMARK INTER:                  -9.982
REMARK INTRA:                  -0.213
REMARK UNBOUND:                -0.315
REMARK  Name = 
REMARK  5 active torsions:
REMARK  status: ('A' for Active; 'I' for Inactive)
REMARK    1  A    between atoms: C_3  and  O_21
REMARK    2  A    between atoms: C_4  and  O_20
REMARK    3  A    between atoms: C_6  and  C_7
REMARK    4  A    between atoms: C_8  and  O_19
REMARK    5  A    between atoms: C_15  and  O_18
REMARK                            x       y       z     vdW  Elec       q    Type
REMARK                         _______ _______ _______ _____ _____    ______ ____
ROOT
ATOM      1  C   UNL     1      49.381 159.478  42.327  0.00  0.00    +0.181 A 
ATOM      2  C   UNL     1      48.140 159.983  42.194  0.00  0.00    +0.208 A 
ATOM      3  C   UNL     1      47.987 161.398  41.778  0.00  0.00    +0.234 A 
ATOM      4  O   UNL     1      46.865 161.880  41.650  0.00  0.00    -0.283 OA
ATOM      5  C   UNL     1      49.218 162.159  41.537  0.00  0.00    +0.068 A 
ATOM      6  C   UNL     1      50.439 161.518  41.714  0.00  0.00    +0.143 A 
ATOM      7  O   UNL     1      50.543 160.208  42.105  0.00  0.00    -0.451 OA
ATOM      8  C   UNL     1      51.625 162.214  41.494  0.00  0.00    +0.092 A 
ATOM      9  C   UNL     1      51.573 163.547  41.097  0.00  0.00    +0.120 A 
ATOM     10  C   UNL     1      50.354 164.198  40.917  0.00  0.00    +0.046 A 
ATOM     11  C   UNL     1      49.166 163.499  41.138  0.00  0.00    +0.019 A 
ENDROOT
BRANCH   1  17
ATOM     12  C   UNL     1      49.294 157.622  44.031  0.00  0.00    +0.015 A 
ATOM     13  C   UNL     1      49.533 156.297  44.414  0.00  0.00    +0.050 A 
ATOM     14  C   UNL     1      50.121 155.428  43.505  0.00  0.00    +0.158 A 
ATOM     15  C   UNL     1      50.466 155.872  42.233  0.00  0.00    +0.159 A 
ATOM     16  C   UNL     1      50.232 157.186  41.847  0.00  0.00    +0.060 A 
ATOM     17  C   UNL     1      49.648 158.086  42.750  0.00  0.00    +0.025 A 
BRANCH  15  18
ATOM     18  O   UNL     1      51.041 155.008  41.344  0.00  0.00    -0.503 OA
ATOM     19  H   UNL     1      50.669 154.134  41.577  0.00  0.00    +0.292 HD
ENDBRANCH  15  18
BRANCH  14  20
ATOM     20  O   UNL     1      50.382 154.122  43.817  0.00  0.00    -0.503 OA
ATOM     21  H   UNL     1      49.629 153.585  43.515  0.00  0.00    +0.292 HD
ENDBRANCH  14  20
ENDBRANCH   1  17
BRANCH   9  22
ATOM     22  O   UNL     1      52.756 164.192  40.893  0.00  0.00    -0.507 OA
ATOM     23  H   UNL     1      53.094 163.966  40.010  0.00  0.00    +0.292 HD
ENDBRANCH   9  22
BRANCH   2  24
ATOM     24  O   UNL     1      46.976 159.276  42.436  0.00  0.00    -0.501 OA
ATOM     25  H   UNL     1      47.096 158.424  41.965  0.00  0.00    +0.292 HD
ENDBRANCH   2  24
TORSDOF 5
ENDMDL
MODEL 4
REMARK VINA RESULT:    -8.159      2.544      7.455
REMARK INTER + INTRA:          -9.905
REMARK INTER:                  -9.706
REMARK INTRA:                  -0.199
REMARK UNBOUND:                -0.315
REMARK  Name = 
REMARK  5 active torsions:
REMARK  status: ('A' for Active; 'I' for Inactive)
REMARK    1  A    between atoms: C_3  and  O_21
REMARK    2  A    between atoms: C_4  and  O_20
REMARK    3  A    between atoms: C_6  and  C_7
REMARK    4  A    between atoms: C_8  and  O_19
REMARK    5  A    between atoms: C_15  and  O_18
REMARK                            x       y       z     vdW  Elec       q    Type
REMARK                         _______ _______ _______ _____ _____    ______ ____
ROOT
ATOM      1  C   UNL     1      49.181 160.500  42.015  0.00  0.00    +0.181 A 
ATOM      2  C   UNL     1      48.345 159.531  42.431  0.00  0.00    +0.208 A 
ATOM      3  C   UNL     1      48.915 158.228  42.851  0.00  0.00    +0.234 A 
ATOM      4  O   UNL     1      48.171 157.330  43.234  0.00  0.00    -0.283 OA
ATOM      5  C   UNL     1      50.374 158.085  42.783  0.00  0.00    +0.068 A 
ATOM      6  C   UNL     1      51.125 159.165  42.330  0.00  0.00    +0.143 A 
ATOM      7  O   UNL     1      50.562 160.355  41.945  0.00  0.00    -0.451 OA
ATOM      8  C   UNL     1      52.511 159.060  42.254  0.00  0.00    +0.092 A 
ATOM      9  C   UNL     1      53.130 157.873  42.633  0.00  0.00    +0.120 A 
ATOM     10  C   UNL     1      52.387 156.786  43.087  0.00  0.00    +0.046 A 
ATOM     11  C   UNL     1      50.996 156.892  43.164  0.00  0.00    +0.019 A 
ENDROOT
BRANCH   1  17
ATOM     12  C   UNL     1      49.069 163.008  42.244  0.00  0.00    +0.015 A 
ATOM     13  C   UNL     1      48.643 164.262  41.792  0.00  0.00    +0.050 A 
ATOM     14  C   UNL     1      47.869 164.338  40.643  0.00  0.00    +0.158 A 
ATOM     15  C   UNL     1      47.524 163.180  39.952  0.00  0.00    +0.159 A 
ATOM     16  C   UNL     1      47.943 161.933  40.395  0.00  0.00    +0.060 A 
ATOM     17  C   UNL     1      48.719 161.829  41.560  0.00  0.00    +0.025 A 
BRANCH  15  18
ATOM     18  O   UNL     1      46.765 163.265  38.819  0.00  0.00    -0.503 OA
ATOM     19  H   UNL     1      45.854 163.080  39.122  0.00  0.00    +0.292 HD
ENDBRANCH  15  18
BRANCH  14  20
ATOM     20  O   UNL     1      47.420 165.532  40.149  0.00  0.00    -0.503 OA
ATOM     21  H   UNL     1      46.458 165.570  40.284  0.00  0.00    +0.292 HD
ENDBRANCH  14  20
ENDBRANCH   1  17
BRANCH   9  22
ATOM     22  O   UNL     1      54.489 157.811  42.542  0.00  0.00    -0.507 OA
ATOM     23  H   UNL     1      54.863 158.681  42.764  0.00  0.00    +0.292 HD
ENDBRANCH   9  22
BRANCH   2  24
ATOM     24  O   UNL     1      46.968 159.653  42.482  0.00  0.00    -0.501 OA
ATOM     25  H   UNL     1      46.800 160.323  43.178  0.00  0.00    +0.292 HD
ENDBRANCH   2  24
TORSDOF 5
ENDMDL
MODEL 5
REMARK VINA RESULT:    -8.061      2.806      4.539
REMARK INTER + INTRA:          -9.790
REMARK INTER:                  -9.700
REMARK INTRA:                  -0.089
REMARK UNBOUND:                -0.315
REMARK  Name = 
REMARK  5 active torsions:
REMARK  status: ('A' for Active; 'I' for Inactive)
REMARK    1  A    between atoms: C_3  and  O_21
REMARK    2  A    between atoms: C_4  and  O_20
REMARK    3  A    between atoms: C_6  and  C_7
REMARK    4  A    between atoms: C_8  and  O_19
REMARK    5  A    between atoms: C_15  and  O_18
REMARK                            x       y       z     vdW  Elec       q    Type
REMARK                         _______ _______ _______ _____ _____    ______ ____
ROOT
ATOM      1  C   UNL     1      49.400 160.581  41.806  0.00  0.00    +0.181 A 
ATOM      2  C   UNL     1      48.088 160.813  41.999  0.00  0.00    +0.208 A 
ATOM      3  C   UNL     1      47.555 162.168  41.723  0.00  0.00    +0.234 A 
ATOM      4  O   UNL     1      46.362 162.402  41.892  0.00  0.00    -0.283 OA
ATOM      5  C   UNL     1      48.510 163.177  41.251  0.00  0.00    +0.068 A 
ATOM      6  C   UNL     1      49.842 162.807  41.097  0.00  0.00    +0.143 A 
ATOM      7  O   UNL     1      50.301 161.544  41.367  0.00  0.00    -0.451 OA
ATOM      8  C   UNL     1      50.773 163.743  40.652  0.00  0.00    +0.092 A 
ATOM      9  C   UNL     1      50.357 165.040  40.365  0.00  0.00    +0.120 A 
ATOM     10  C   UNL     1      49.025 165.419  40.517  0.00  0.00    +0.046 A 
ATOM     11  C   UNL     1      48.093 164.481  40.963  0.00  0.00    +0.019 A 
ENDROOT
BRANCH   1  17
ATOM     12  C   UNL     1      49.525 158.079  41.523  0.00  0.00    +0.015 A 
ATOM     13  C   UNL     1      50.149 156.848  41.758  0.00  0.00    +0.050 A 
ATOM     14  C   UNL     1      51.300 156.813  42.532  0.00  0.00    +0.158 A 
ATOM     15  C   UNL     1      51.824 157.986  43.065  0.00  0.00    +0.159 A 
ATOM     16  C   UNL     1      51.209 159.210  42.837  0.00  0.00    +0.060 A 
ATOM     17  C   UNL     1      50.038 159.271  42.065  0.00  0.00    +0.025 A 
BRANCH  15  18
ATOM     18  O   UNL     1      52.960 157.942  43.822  0.00  0.00    -0.503 OA
ATOM     19  H   UNL     1      53.133 158.875  44.057  0.00  0.00    +0.292 HD
ENDBRANCH  15  18
BRANCH  14  20
ATOM     20  O   UNL     1      51.958 155.643  42.798  0.00  0.00    -0.503 OA
ATOM     21  H   UNL     1      52.279 155.280  41.956  0.00  0.00    +0.292 HD
ENDBRANCH  14  20
ENDBRANCH   1  17
BRANCH   9  22
ATOM     22  O   UNL     1      51.300 165.925  39.932  0.00  0.00    -0.507 OA
ATOM     23  H   UNL     1      51.571 165.685  39.030  0.00  0.00    +0.292 HD
ENDBRANCH   9  22
BRANCH   2  24
ATOM     24  O   UNL     1      47.185 159.871  42.460  0.00  0.00    -0.501 OA
ATOM     25  H   UNL     1      47.700 159.038  42.521  0.00  0.00    +0.292 HD
ENDBRANCH   2  24
TORSDOF 5
ENDMDL
MODEL 6
REMARK VINA RESULT:    -8.018      2.267      6.931
REMARK INTER + INTRA:          -9.739
REMARK INTER:                  -9.933
REMARK INTRA:                   0.193
REMARK UNBOUND:                -0.315
REMARK  Name = 
REMARK  5 active torsions:
REMARK  status: ('A' for Active; 'I' for Inactive)
REMARK    1  A    between atoms: C_3  and  O_21
REMARK    2  A    between atoms: C_4  and  O_20
REMARK    3  A    between atoms: C_6  and  C_7
REMARK    4  A    between atoms: C_8  and  O_19
REMARK    5  A    between atoms: C_15  and  O_18
REMARK                            x       y       z     vdW  Elec       q    Type
REMARK                         _______ _______ _______ _____ _____    ______ ____
ROOT
ATOM      1  C   UNL     1      50.158 160.366  41.818  0.00  0.00    +0.181 A 
ATOM      2  C   UNL     1      51.466 160.410  42.130  0.00  0.00    +0.208 A 
ATOM      3  C   UNL     1      52.136 159.163  42.575  0.00  0.00    +0.234 A 
ATOM      4  O   UNL     1      53.329 159.180  42.865  0.00  0.00    -0.283 OA
ATOM      5  C   UNL     1      51.311 157.952  42.645  0.00  0.00    +0.068 A 
ATOM      6  C   UNL     1      49.967 158.045  42.297  0.00  0.00    +0.143 A 
ATOM      7  O   UNL     1      49.380 159.216  41.894  0.00  0.00    -0.451 OA
ATOM      8  C   UNL     1      49.159 156.912  42.354  0.00  0.00    +0.092 A 
ATOM      9  C   UNL     1      49.706 155.698  42.758  0.00  0.00    +0.120 A 
ATOM     10  C   UNL     1      51.051 155.596  43.108  0.00  0.00    +0.046 A 
ATOM     11  C   UNL     1      51.861 156.732  43.051  0.00  0.00    +0.019 A 
ENDROOT
BRANCH   1  17
ATOM     12  C   UNL     1      49.772 162.856  41.742  0.00  0.00    +0.015 A 
ATOM     13  C   UNL     1      49.049 163.972  41.303  0.00  0.00    +0.050 A 
ATOM     14  C   UNL     1      47.942 163.780  40.487  0.00  0.00    +0.158 A 
ATOM     15  C   UNL     1      47.561 162.496  40.112  0.00  0.00    +0.159 A 
ATOM     16  C   UNL     1      48.273 161.385  40.545  0.00  0.00    +0.060 A 
ATOM     17  C   UNL     1      49.390 161.552  41.378  0.00  0.00    +0.025 A 
BRANCH  15  18
ATOM     18  O   UNL     1      46.473 162.318  39.305  0.00  0.00    -0.503 OA
ATOM     19  H   UNL     1      46.059 163.202  39.255  0.00  0.00    +0.292 HD
ENDBRANCH  15  18
BRANCH  14  20
ATOM     20  O   UNL     1      47.194 164.828  40.025  0.00  0.00    -0.503 OA
ATOM     21  H   UNL     1      46.462 164.465  39.497  0.00  0.00    +0.292 HD
ENDBRANCH  14  20
ENDBRANCH   1  17
BRANCH   9  22
ATOM     22  O   UNL     1      48.881 154.614  42.800  0.00  0.00    -0.507 OA
ATOM     23  H   UNL     1      48.252 154.664  42.061  0.00  0.00    +0.292 HD
ENDBRANCH   9  22
BRANCH   2  24
ATOM     24  O   UNL     1      52.246 161.552  42.083  0.00  0.00    -0.501 OA
ATOM     25  H   UNL     1      52.212 161.917  42.992  0.00  0.00    +0.292 HD
ENDBRANCH   2  24
TORSDOF 5
ENDMDL
MODEL 7
REMARK VINA RESULT:    -7.936      2.370      3.398
REMARK INTER + INTRA:          -9.643
REMARK INTER:                  -9.616
REMARK INTRA:                  -0.027
REMARK UNBOUND:                -0.315
REMARK  Name = 
REMARK  5 active torsions:
REMARK  status: ('A' for Active; 'I' for Inactive)
REMARK    1  A    between atoms: C_3  and  O_21
REMARK    2  A    between atoms: C_4  and  O_20
REMARK    3  A    between atoms: C_6  and  C_7
REMARK    4  A    between atoms: C_8  and  O_19
REMARK    5  A    between atoms: C_15  and  O_18
REMARK                            x       y       z     vdW  Elec       q    Type
REMARK                         _______ _______ _______ _____ _____    ______ ____
ROOT
ATOM      1  C   UNL     1      50.312 160.561  41.911  0.00  0.00    +0.181 A 
ATOM      2  C   UNL     1      51.576 161.019  41.986  0.00  0.00    +0.208 A 
ATOM      3  C   UNL     1      51.844 162.432  41.626  0.00  0.00    +0.234 A 
ATOM      4  O   UNL     1      52.990 162.871  41.687  0.00  0.00    -0.283 OA
ATOM      5  C   UNL     1      50.696 163.244  41.210  0.00  0.00    +0.068 A 
ATOM      6  C   UNL     1      49.441 162.646  41.172  0.00  0.00    +0.143 A 
ATOM      7  O   UNL     1      49.230 161.334  41.507  0.00  0.00    -0.451 OA
ATOM      8  C   UNL     1      48.331 163.391  40.780  0.00  0.00    +0.092 A 
ATOM      9  C   UNL     1      48.493 164.728  40.429  0.00  0.00    +0.120 A 
ATOM     10  C   UNL     1      49.746 165.336  40.463  0.00  0.00    +0.046 A 
ATOM     11  C   UNL     1      50.858 164.588  40.856  0.00  0.00    +0.019 A 
ENDROOT
BRANCH   1  17
ATOM     12  C   UNL     1      50.670 158.071  41.741  0.00  0.00    +0.015 A 
ATOM     13  C   UNL     1      50.316 156.757  42.067  0.00  0.00    +0.050 A 
ATOM     14  C   UNL     1      49.226 156.538  42.896  0.00  0.00    +0.158 A 
ATOM     15  C   UNL     1      48.498 157.613  43.397  0.00  0.00    +0.159 A 
ATOM     16  C   UNL     1      48.843 158.919  43.076  0.00  0.00    +0.060 A 
ATOM     17  C   UNL     1      49.935 159.166  42.231  0.00  0.00    +0.025 A 
BRANCH  15  18
ATOM     18  O   UNL     1      47.429 157.387  44.216  0.00  0.00    -0.503 OA
ATOM     19  H   UNL     1      47.562 158.001  44.966  0.00  0.00    +0.292 HD
ENDBRANCH  15  18
BRANCH  14  20
ATOM     20  O   UNL     1      48.829 155.278  43.253  0.00  0.00    -0.503 OA
ATOM     21  H   UNL     1      48.133 155.362  43.927  0.00  0.00    +0.292 HD
ENDBRANCH  14  20
ENDBRANCH   1  17
BRANCH   9  22
ATOM     22  O   UNL     1      47.382 165.421  40.050  0.00  0.00    -0.507 OA
ATOM     23  H   UNL     1      46.756 165.450  40.793  0.00  0.00    +0.292 HD
ENDBRANCH   9  22
BRANCH   2  24
ATOM     24  O   UNL     1      52.666 160.254  42.362  0.00  0.00    -0.501 OA
ATOM     25  H   UNL     1      52.828 159.656  41.602  0.00  0.00    +0.292 HD
ENDBRANCH   2  24
TORSDOF 5
ENDMDL
MODEL 8
REMARK VINA RESULT:    -7.503      4.106      9.215
REMARK INTER + INTRA:          -9.133
REMARK INTER:                  -8.805
REMARK INTRA:                  -0.328
REMARK UNBOUND:                -0.315
REMARK  Name = 
REMARK  5 active torsions:
REMARK  status: ('A' for Active; 'I' for Inactive)
REMARK    1  A    between atoms: C_3  and  O_21
REMARK    2  A    between atoms: C_4  and  O_20
REMARK    3  A    between atoms: C_6  and  C_7
REMARK    4  A    between atoms: C_8  and  O_19
REMARK    5  A    between atoms: C_15  and  O_18
REMARK                            x       y       z     vdW  Elec       q    Type
REMARK                         _______ _______ _______ _____ _____    ______ ____
ROOT
ATOM      1  C   UNL     1      49.519 164.058  40.968  0.00  0.00    +0.181 A 
ATOM      2  C   UNL     1      48.275 163.799  40.524  0.00  0.00    +0.208 A 
ATOM      3  C   UNL     1      47.782 162.401  40.559  0.00  0.00    +0.234 A 
ATOM      4  O   UNL     1      46.651 162.141  40.159  0.00  0.00    -0.283 OA
ATOM      5  C   UNL     1      48.700 161.383  41.083  0.00  0.00    +0.068 A 
ATOM      6  C   UNL     1      49.962 161.785  41.507  0.00  0.00    +0.143 A 
ATOM      7  O   UNL     1      50.386 163.087  41.456  0.00  0.00    -0.451 OA
ATOM      8  C   UNL     1      50.856 160.842  42.009  0.00  0.00    +0.092 A 
ATOM      9  C   UNL     1      50.474 159.506  42.081  0.00  0.00    +0.120 A 
ATOM     10  C   UNL     1      49.211 159.094  41.659  0.00  0.00    +0.046 A 
ATOM     11  C   UNL     1      48.316 160.040  41.155  0.00  0.00    +0.019 A 
ENDROOT
BRANCH   1  17
ATOM     12  C   UNL     1      49.945 166.298  42.044  0.00  0.00    +0.015 A 
ATOM     13  C   UNL     1      50.531 167.569  42.038  0.00  0.00    +0.050 A 
ATOM     14  C   UNL     1      51.300 167.953  40.948  0.00  0.00    +0.158 A 
ATOM     15  C   UNL     1      51.484 167.082  39.879  0.00  0.00    +0.159 A 
ATOM     16  C   UNL     1      50.905 165.820  39.878  0.00  0.00    +0.060 A 
ATOM     17  C   UNL     1      50.115 165.412  40.964  0.00  0.00    +0.025 A 
BRANCH  15  18
ATOM     18  O   UNL     1      52.246 167.466  38.812  0.00  0.00    -0.503 OA
ATOM     19  H   UNL     1      51.700 167.246  38.030  0.00  0.00    +0.292 HD
ENDBRANCH  15  18
BRANCH  14  20
ATOM     20  O   UNL     1      51.899 169.180  40.881  0.00  0.00    -0.503 OA
ATOM     21  H   UNL     1      51.458 169.692  40.181  0.00  0.00    +0.292 HD
ENDBRANCH  14  20
ENDBRANCH   1  17
BRANCH   9  22
ATOM     22  O   UNL     1      51.378 158.615  42.578  0.00  0.00    -0.507 OA
ATOM     23  H   UNL     1      51.030 157.714  42.470  0.00  0.00    +0.292 HD
ENDBRANCH   9  22
BRANCH   2  24
ATOM     24  O   UNL     1      47.411 164.751  40.012  0.00  0.00    -0.501 OA
ATOM     25  H   UNL     1      47.153 165.297  40.784  0.00  0.00    +0.292 HD
ENDBRANCH   2  24
TORSDOF 5
ENDMDL
MODEL 9
REMARK VINA RESULT:    -7.336      3.113      6.839
REMARK INTER + INTRA:          -8.937
REMARK INTER:                  -8.618
REMARK INTRA:                  -0.320
REMARK UNBOUND:                -0.315
REMARK  Name = 
REMARK  5 active torsions:
REMARK  status: ('A' for Active; 'I' for Inactive)
REMARK    1  A    between atoms: C_3  and  O_21
REMARK    2  A    between atoms: C_4  and  O_20
REMARK    3  A    between atoms: C_6  and  C_7
REMARK    4  A    between atoms: C_8  and  O_19
REMARK    5  A    between atoms: C_15  and  O_18
REMARK                            x       y       z     vdW  Elec       q    Type
REMARK                         _______ _______ _______ _____ _____    ______ ____
ROOT
ATOM      1  C   UNL     1      50.315 160.298  42.106  0.00  0.00    +0.181 A 
ATOM      2  C   UNL     1      50.299 159.023  42.536  0.00  0.00    +0.208 A 
ATOM      3  C   UNL     1      51.583 158.289  42.642  0.00  0.00    +0.234 A 
ATOM      4  O   UNL     1      51.592 157.125  43.032  0.00  0.00    -0.283 OA
ATOM      5  C   UNL     1      52.799 159.017  42.264  0.00  0.00    +0.068 A 
ATOM      6  C   UNL     1      52.677 160.333  41.831  0.00  0.00    +0.143 A 
ATOM      7  O   UNL     1      51.471 160.979  41.742  0.00  0.00    -0.451 OA
ATOM      8  C   UNL     1      53.813 161.049  41.465  0.00  0.00    +0.092 A 
ATOM      9  C   UNL     1      55.061 160.438  41.537  0.00  0.00    +0.120 A 
ATOM     10  C   UNL     1      55.194 159.120  41.969  0.00  0.00    +0.046 A 
ATOM     11  C   UNL     1      54.054 158.402  42.336  0.00  0.00    +0.019 A 
ENDROOT
BRANCH   1  17
ATOM     12  C   UNL     1      48.495 161.770  43.043  0.00  0.00    +0.015 A 
ATOM     13  C   UNL     1      47.350 162.558  42.879  0.00  0.00    +0.050 A 
ATOM     14  C   UNL     1      46.804 162.700  41.611  0.00  0.00    +0.158 A 
ATOM     15  C   UNL     1      47.392 162.067  40.520  0.00  0.00    +0.159 A 
ATOM     16  C   UNL     1      48.527 161.283  40.676  0.00  0.00    +0.060 A 
ATOM     17  C   UNL     1      49.092 161.116  41.949  0.00  0.00    +0.025 A 
BRANCH  15  18
ATOM     18  O   UNL     1      46.850 162.216  39.275  0.00  0.00    -0.503 OA
ATOM     19  H   UNL     1      47.582 162.001  38.663  0.00  0.00    +0.292 HD
ENDBRANCH  15  18
BRANCH  14  20
ATOM     20  O   UNL     1      45.687 163.455  41.384  0.00  0.00    -0.503 OA
ATOM     21  H   UNL     1      45.962 164.268  40.926  0.00  0.00    +0.292 HD
ENDBRANCH  14  20
ENDBRANCH   1  17
BRANCH   9  22
ATOM     22  O   UNL     1      56.148 161.174  41.168  0.00  0.00    -0.507 OA
ATOM     23  H   UNL     1      56.841 161.079  41.844  0.00  0.00    +0.292 HD
ENDBRANCH   9  22
BRANCH   2  24
ATOM     24  O   UNL     1      49.154 158.325  42.878  0.00  0.00    -0.501 OA
ATOM     25  H   UNL     1      49.287 158.065  43.814  0.00  0.00    +0.292 HD
ENDBRANCH   2  24
TORSDOF 5
ENDMDL
