MODEL 1
REMARK VINA RESULT:    -7.744      0.000      0.000
REMARK INTER + INTRA:          -8.502
REMARK INTER:                  -8.423
REMARK INTRA:                  -0.079
REMARK UNBOUND:                -0.079
REMARK  Name = 
REMARK  4 active torsions:
REMARK  status: ('A' for Active; 'I' for Inactive)
REMARK    1  A    between atoms: C_1  and  N_2
REMARK    2  A    between atoms: C_8  and  O_21
REMARK    3  A    between atoms: C_13  and  O_19
REMARK    4  A    between atoms: O_19  and  C_20
REMARK                            x       y       z     vdW  Elec       q    Type
REMARK                         _______ _______ _______ _____ _____    ______ ____
ROOT
ATOM      1  C   UNL     1      48.249 162.819  40.772  0.00  0.00    +0.105 C 
ATOM      2  N   UNL     1      49.067 161.621  41.000  0.00  0.00    -0.301 NA
ATOM      3  C   UNL     1      48.188 160.501  41.381  0.00  0.00    +0.086 C 
ATOM      4  C   UNL     1      48.834 159.116  41.251  0.00  0.00    +0.035 C 
ATOM      5  C   UNL     1      49.950 158.780  42.257  0.00  0.00    +0.056 C 
ATOM      6  C   UNL     1      49.452 158.810  43.695  0.00  0.00    -0.013 C 
ATOM      7  C   UNL     1      49.463 157.746  44.512  0.00  0.00    +0.001 C 
ATOM      8  C   UNL     1      49.952 156.396  44.102  0.00  0.00    +0.141 C 
ATOM      9  C   UNL     1      49.969 156.216  42.587  0.00  0.00    +0.081 C 
ATOM     10  C   UNL     1      50.601 157.411  41.880  0.00  0.00    +0.191 C 
ATOM     11  O   UNL     1      52.013 157.467  42.205  0.00  0.00    -0.484 OA
ATOM     12  C   UNL     1      52.307 158.807  42.092  0.00  0.00    +0.167 A 
ATOM     13  C   UNL     1      53.595 159.316  42.000  0.00  0.00    +0.162 A 
ATOM     14  C   UNL     1      53.721 160.701  41.881  0.00  0.00    +0.050 A 
ATOM     15  C   UNL     1      52.582 161.529  41.868  0.00  0.00    +0.009 A 
ATOM     16  C   UNL     1      51.283 161.001  41.976  0.00  0.00    -0.026 A 
ATOM     17  C   UNL     1      51.174 159.622  42.092  0.00  0.00    +0.016 A 
ATOM     18  C   UNL     1      50.083 161.914  42.025  0.00  0.00    +0.119 C 
ENDROOT
BRANCH  13  19
ATOM     19  O   UNL     1      54.617 158.412  42.024  0.00  0.00    -0.491 OA
ATOM     20  C   UNL     1      55.915 158.899  41.716  0.00  0.00    +0.277 C 
ENDBRANCH  13  19
BRANCH   8  21
ATOM     21  O   UNL     1      49.069 155.434  44.669  0.00  0.00    -0.388 OA
ATOM     22  H   UNL     1      48.579 155.034  43.932  0.00  0.00    +0.210 HD
ENDBRANCH   8  21
TORSDOF 2
ENDMDL
MODEL 2
REMARK VINA RESULT:    -7.259      2.272      4.472
REMARK INTER + INTRA:          -7.975
REMARK INTER:                  -7.891
REMARK INTRA:                  -0.084
REMARK UNBOUND:                -0.079
REMARK  Name = 
REMARK  4 active torsions:
REMARK  status: ('A' for Active; 'I' for Inactive)
REMARK    1  A    between atoms: C_1  and  N_2
REMARK    2  A    between atoms: C_8  and  O_21
REMARK    3  A    between atoms: C_13  and  O_19
REMARK    4  A    between atoms: O_19  and  C_20
REMARK                            x       y       z     vdW  Elec       q    Type
REMARK                         _______ _______ _______ _____ _____    ______ ____
ROOT
ATOM      1  C   UNL     1      55.262 160.087  42.727  0.00  0.00    +0.105 C 
ATOM      2  N   UNL     1      53.827 159.857  42.933  0.00  0.00    -0.301 NA
ATOM      3  C   UNL     1      53.611 158.443  43.292  0.00  0.00    +0.086 C 
ATOM      4  C   UNL     1      52.245 158.152  43.927  0.00  0.00    +0.035 C 
ATOM      5  C   UNL     1      51.019 158.261  43.003  0.00  0.00    +0.056 C 
ATOM      6  C   UNL     1      51.090 157.282  41.840  0.00  0.00    -0.013 C 
ATOM      7  C   UNL     1      50.192 156.308  41.626  0.00  0.00    +0.001 C 
ATOM      8  C   UNL     1      49.020 156.058  42.517  0.00  0.00    +0.141 C 
ATOM      9  C   UNL     1      49.204 156.660  43.908  0.00  0.00    +0.081 C 
ATOM     10  C   UNL     1      49.712 158.096  43.843  0.00  0.00    +0.191 C 
ATOM     11  O   UNL     1      48.685 158.942  43.269  0.00  0.00    -0.484 OA
ATOM     12  C   UNL     1      49.407 159.960  42.687  0.00  0.00    +0.167 A 
ATOM     13  C   UNL     1      48.859 161.171  42.286  0.00  0.00    +0.162 A 
ATOM     14  C   UNL     1      49.731 162.102  41.721  0.00  0.00    +0.050 A 
ATOM     15  C   UNL     1      51.099 161.805  41.562  0.00  0.00    +0.009 A 
ATOM     16  C   UNL     1      51.638 160.568  41.959  0.00  0.00    -0.026 A 
ATOM     17  C   UNL     1      50.758 159.653  42.522  0.00  0.00    +0.016 A 
ATOM     18  C   UNL     1      53.092 160.248  41.719  0.00  0.00    +0.119 C 
ENDROOT
BRANCH  13  19
ATOM     19  O   UNL     1      47.522 161.340  42.493  0.00  0.00    -0.491 OA
ATOM     20  C   UNL     1      46.821 162.144  41.554  0.00  0.00    +0.277 C 
ENDBRANCH  13  19
BRANCH   8  21
ATOM     21  O   UNL     1      48.874 154.648  42.641  0.00  0.00    -0.388 OA
ATOM     22  H   UNL     1      48.981 154.275  41.750  0.00  0.00    +0.210 HD
ENDBRANCH   8  21
TORSDOF 2
ENDMDL
MODEL 3
REMARK VINA RESULT:    -6.798      3.128      5.170
REMARK INTER + INTRA:          -7.473
REMARK INTER:                  -7.376
REMARK INTRA:                  -0.098
REMARK UNBOUND:                -0.079
REMARK  Name = 
REMARK  4 active torsions:
REMARK  status: ('A' for Active; 'I' for Inactive)
REMARK    1  A    between atoms: C_1  and  N_2
REMARK    2  A    between atoms: C_8  and  O_21
REMARK    3  A    between atoms: C_13  and  O_19
REMARK    4  A    between atoms: O_19  and  C_20
REMARK                            x       y       z     vdW  Elec       q    Type
REMARK                         _______ _______ _______ _____ _____    ______ ____
ROOT
ATOM      1  C   UNL     1      49.944 157.406  43.992  0.00  0.00    +0.105 C 
ATOM      2  N   UNL     1      49.997 158.796  43.525  0.00  0.00    -0.301 NA
ATOM      3  C   UNL     1      48.624 159.286  43.309  0.00  0.00    +0.086 C 
ATOM      4  C   UNL     1      48.501 160.812  43.220  0.00  0.00    +0.035 C 
ATOM      5  C   UNL     1      49.096 161.478  41.967  0.00  0.00    +0.056 C 
ATOM      6  C   UNL     1      48.431 160.990  40.688  0.00  0.00    -0.013 C 
ATOM      7  C   UNL     1      47.760 161.788  39.843  0.00  0.00    +0.001 C 
ATOM      8  C   UNL     1      47.573 163.252  40.065  0.00  0.00    +0.141 C 
ATOM      9  C   UNL     1      47.771 163.653  41.524  0.00  0.00    +0.081 C 
ATOM     10  C   UNL     1      49.031 163.032  42.118  0.00  0.00    +0.191 C 
ATOM     11  O   UNL     1      50.196 163.607  41.474  0.00  0.00    -0.484 OA
ATOM     12  C   UNL     1      51.136 162.606  41.576  0.00  0.00    +0.167 A 
ATOM     13  C   UNL     1      52.498 162.796  41.388  0.00  0.00    +0.162 A 
ATOM     14  C   UNL     1      53.319 161.677  41.538  0.00  0.00    +0.050 A 
ATOM     15  C   UNL     1      52.771 160.419  41.856  0.00  0.00    +0.009 A 
ATOM     16  C   UNL     1      51.388 160.238  42.030  0.00  0.00    -0.026 A 
ATOM     17  C   UNL     1      50.584 161.360  41.879  0.00  0.00    +0.016 A 
ATOM     18  C   UNL     1      50.819 158.868  42.305  0.00  0.00    +0.119 C 
ENDROOT
BRANCH  13  19
ATOM     19  O   UNL     1      52.907 164.061  41.084  0.00  0.00    -0.491 OA
ATOM     20  C   UNL     1      53.243 164.322  39.729  0.00  0.00    +0.277 C 
ENDBRANCH  13  19
BRANCH   8  21
ATOM     21  O   UNL     1      46.242 163.574  39.676  0.00  0.00    -0.388 OA
ATOM     22  H   UNL     1      46.300 163.999  38.804  0.00  0.00    +0.210 HD
ENDBRANCH   8  21
TORSDOF 2
ENDMDL
MODEL 4
REMARK VINA RESULT:    -6.722      3.265      6.315
REMARK INTER + INTRA:          -7.391
REMARK INTER:                  -7.294
REMARK INTRA:                  -0.097
REMARK UNBOUND:                -0.079
REMARK  Name = 
REMARK  4 active torsions:
REMARK  status: ('A' for Active; 'I' for Inactive)
REMARK    1  A    between atoms: C_1  and  N_2
REMARK    2  A    between atoms: C_8  and  O_21
REMARK    3  A    between atoms: C_13  and  O_19
REMARK    4  A    between atoms: O_19  and  C_20
REMARK                            x       y       z     vdW  Elec       q    Type
REMARK                         _______ _______ _______ _____ _____    ______ ____
ROOT
ATOM      1  C   UNL     1      48.269 167.772  42.103  0.00  0.00    +0.105 C 
ATOM      2  N   UNL     1      48.854 166.426  42.088  0.00  0.00    -0.301 NA
ATOM      3  C   UNL     1      50.315 166.532  42.250  0.00  0.00    +0.086 C 
ATOM      4  C   UNL     1      51.005 165.225  42.660  0.00  0.00    +0.035 C 
ATOM      5  C   UNL     1      51.052 164.110  41.600  0.00  0.00    +0.056 C 
ATOM      6  C   UNL     1      51.809 164.539  40.351  0.00  0.00    -0.013 C 
ATOM      7  C   UNL     1      52.925 163.937  39.910  0.00  0.00    +0.001 C 
ATOM      8  C   UNL     1      53.566 162.780  40.602  0.00  0.00    +0.141 C 
ATOM      9  C   UNL     1      53.145 162.667  42.065  0.00  0.00    +0.081 C 
ATOM     10  C   UNL     1      51.636 162.807  42.234  0.00  0.00    +0.191 C 
ATOM     11  O   UNL     1      50.979 161.665  41.630  0.00  0.00    -0.484 OA
ATOM     12  C   UNL     1      49.748 162.167  41.270  0.00  0.00    +0.167 A 
ATOM     13  C   UNL     1      48.653 161.380  40.942  0.00  0.00    +0.162 A 
ATOM     14  C   UNL     1      47.472 162.045  40.609  0.00  0.00    +0.050 A 
ATOM     15  C   UNL     1      47.418 163.453  40.600  0.00  0.00    +0.009 A 
ATOM     16  C   UNL     1      48.539 164.239  40.920  0.00  0.00    -0.026 A 
ATOM     17  C   UNL     1      49.705 163.562  41.252  0.00  0.00    +0.016 A 
ATOM     18  C   UNL     1      48.474 165.743  40.840  0.00  0.00    +0.119 C 
ENDROOT
BRANCH  13  19
ATOM     19  O   UNL     1      48.830 160.028  40.988  0.00  0.00    -0.491 OA
ATOM     20  C   UNL     1      48.345 159.352  42.139  0.00  0.00    +0.277 C 
ENDBRANCH  13  19
BRANCH   8  21
ATOM     21  O   UNL     1      54.974 162.977  40.543  0.00  0.00    -0.388 OA
ATOM     22  H   UNL     1      55.239 162.835  39.618  0.00  0.00    +0.210 HD
ENDBRANCH   8  21
TORSDOF 2
ENDMDL
MODEL 5
REMARK VINA RESULT:    -6.643      2.572      5.594
REMARK INTER + INTRA:          -7.305
REMARK INTER:                  -7.225
REMARK INTRA:                  -0.080
REMARK UNBOUND:                -0.079
REMARK  Name = 
REMARK  4 active torsions:
REMARK  status: ('A' for Active; 'I' for Inactive)
REMARK    1  A    between atoms: C_1  and  N_2
REMARK    2  A    between atoms: C_8  and  O_21
REMARK    3  A    between atoms: C_13  and  O_19
REMARK    4  A    between atoms: O_19  and  C_20
REMARK                            x       y       z     vdW  Elec       q    Type
REMARK                         _______ _______ _______ _____ _____    ______ ____
ROOT
ATOM      1  C   UNL     1      46.480 164.395  40.973  0.00  0.00    +0.105 C 
ATOM      2  N   UNL     1      47.790 163.851  41.350  0.00  0.00    -0.301 NA
ATOM      3  C   UNL     1      48.801 164.920  41.265  0.00  0.00    +0.086 C 
ATOM      4  C   UNL     1      50.108 164.618  42.008  0.00  0.00    +0.035 C 
ATOM      5  C   UNL     1      51.002 163.518  41.408  0.00  0.00    +0.056 C 
ATOM      6  C   UNL     1      51.462 163.860  39.998  0.00  0.00    -0.013 C 
ATOM      7  C   UNL     1      52.748 164.013  39.647  0.00  0.00    +0.001 C 
ATOM      8  C   UNL     1      53.885 163.882  40.606  0.00  0.00    +0.141 C 
ATOM      9  C   UNL     1      53.447 164.047  42.059  0.00  0.00    +0.081 C 
ATOM     10  C   UNL     1      52.198 163.230  42.372  0.00  0.00    +0.191 C 
ATOM     11  O   UNL     1      52.518 161.819  42.300  0.00  0.00    -0.484 OA
ATOM     12  C   UNL     1      51.316 161.241  41.958  0.00  0.00    +0.167 A 
ATOM     13  C   UNL     1      51.042 159.886  42.078  0.00  0.00    +0.162 A 
ATOM     14  C   UNL     1      49.768 159.463  41.697  0.00  0.00    +0.050 A 
ATOM     15  C   UNL     1      48.821 160.382  41.204  0.00  0.00    +0.009 A 
ATOM     16  C   UNL     1      49.117 161.750  41.074  0.00  0.00    -0.026 A 
ATOM     17  C   UNL     1      50.387 162.157  41.460  0.00  0.00    +0.016 A 
ATOM     18  C   UNL     1      48.109 162.704  40.483  0.00  0.00    +0.119 C 
ENDROOT
BRANCH  13  19
ATOM     19  O   UNL     1      52.040 159.097  42.568  0.00  0.00    -0.491 OA
ATOM     20  C   UNL     1      51.661 157.842  43.115  0.00  0.00    +0.277 C 
ENDBRANCH  13  19
BRANCH   8  21
ATOM     21  O   UNL     1      54.827 164.901  40.291  0.00  0.00    -0.388 OA
ATOM     22  H   UNL     1      54.517 165.714  40.726  0.00  0.00    +0.210 HD
ENDBRANCH   8  21
TORSDOF 2
ENDMDL
MODEL 6
REMARK VINA RESULT:    -6.593      3.924      7.057
REMARK INTER + INTRA:          -7.250
REMARK INTER:                  -7.274
REMARK INTRA:                   0.023
REMARK UNBOUND:                -0.079
REMARK  Name = 
REMARK  4 active torsions:
REMARK  status: ('A' for Active; 'I' for Inactive)
REMARK    1  A    between atoms: C_1  and  N_2
REMARK    2  A    between atoms: C_8  and  O_21
REMARK    3  A    between atoms: C_13  and  O_19
REMARK    4  A    between atoms: O_19  and  C_20
REMARK                            x       y       z     vdW  Elec       q    Type
REMARK                         _______ _______ _______ _____ _____    ______ ____
ROOT
ATOM      1  C   UNL     1      54.651 160.477  41.306  0.00  0.00    +0.105 C 
ATOM      2  N   UNL     1      53.437 161.264  41.057  0.00  0.00    -0.301 NA
ATOM      3  C   UNL     1      53.790 162.694  41.001  0.00  0.00    +0.086 C 
ATOM      4  C   UNL     1      52.723 163.585  40.353  0.00  0.00    +0.035 C 
ATOM      5  C   UNL     1      51.419 163.784  41.144  0.00  0.00    +0.056 C 
ATOM      6  C   UNL     1      51.663 164.441  42.495  0.00  0.00    -0.013 C 
ATOM      7  C   UNL     1      51.147 165.627  42.853  0.00  0.00    +0.001 C 
ATOM      8  C   UNL     1      50.282 166.454  41.960  0.00  0.00    +0.141 C 
ATOM      9  C   UNL     1      50.440 166.084  40.488  0.00  0.00    +0.081 C 
ATOM     10  C   UNL     1      50.392 164.575  40.272  0.00  0.00    +0.191 C 
ATOM     11  O   UNL     1      49.059 164.091  40.575  0.00  0.00    -0.484 OA
ATOM     12  C   UNL     1      49.281 162.791  40.970  0.00  0.00    +0.167 A 
ATOM     13  C   UNL     1      48.288 161.825  41.058  0.00  0.00    +0.162 A 
ATOM     14  C   UNL     1      48.682 160.549  41.465  0.00  0.00    +0.050 A 
ATOM     15  C   UNL     1      50.028 160.277  41.779  0.00  0.00    +0.009 A 
ATOM     16  C   UNL     1      51.021 161.269  41.699  0.00  0.00    -0.026 A 
ATOM     17  C   UNL     1      50.615 162.532  41.291  0.00  0.00    +0.016 A 
ATOM     18  C   UNL     1      52.443 160.969  42.103  0.00  0.00    +0.119 C 
ENDROOT
BRANCH  13  19
ATOM     19  O   UNL     1      47.023 162.211  40.727  0.00  0.00    -0.491 OA
ATOM     20  C   UNL     1      46.275 162.891  41.725  0.00  0.00    +0.277 C 
ENDBRANCH  13  19
BRANCH   8  21
ATOM     21  O   UNL     1      50.665 167.813  42.137  0.00  0.00    -0.388 OA
ATOM     22  H   UNL     1      50.965 168.135  41.270  0.00  0.00    +0.210 HD
ENDBRANCH   8  21
TORSDOF 2
ENDMDL
MODEL 7
REMARK VINA RESULT:    -6.291      4.360      7.450
REMARK INTER + INTRA:          -6.922
REMARK INTER:                  -6.869
REMARK INTRA:                  -0.053
REMARK UNBOUND:                -0.079
REMARK  Name = 
REMARK  4 active torsions:
REMARK  status: ('A' for Active; 'I' for Inactive)
REMARK    1  A    between atoms: C_1  and  N_2
REMARK    2  A    between atoms: C_8  and  O_21
REMARK    3  A    between atoms: C_13  and  O_19
REMARK    4  A    between atoms: O_19  and  C_20
REMARK                            x       y       z     vdW  Elec       q    Type
REMARK                         _______ _______ _______ _____ _____    ______ ____
ROOT
ATOM      1  C   UNL     1      54.399 161.909  41.072  0.00  0.00    +0.105 C 
ATOM      2  N   UNL     1      53.095 162.570  40.946  0.00  0.00    -0.301 NA
ATOM      3  C   UNL     1      53.256 164.012  41.209  0.00  0.00    +0.086 C 
ATOM      4  C   UNL     1      52.089 164.879  40.721  0.00  0.00    +0.035 C 
ATOM      5  C   UNL     1      50.760 164.736  41.482  0.00  0.00    +0.056 C 
ATOM      6  C   UNL     1      50.897 165.112  42.951  0.00  0.00    -0.013 C 
ATOM      7  C   UNL     1      50.225 166.119  43.531  0.00  0.00    +0.001 C 
ATOM      8  C   UNL     1      49.269 167.002  42.798  0.00  0.00    +0.141 C 
ATOM      9  C   UNL     1      49.493 166.980  41.289  0.00  0.00    +0.081 C 
ATOM     10  C   UNL     1      49.648 165.559  40.757  0.00  0.00    +0.191 C 
ATOM     11  O   UNL     1      48.388 164.857  40.896  0.00  0.00    -0.484 OA
ATOM     12  C   UNL     1      48.775 163.540  41.016  0.00  0.00    +0.167 A 
ATOM     13  C   UNL     1      47.918 162.460  40.857  0.00  0.00    +0.162 A 
ATOM     14  C   UNL     1      48.472 161.187  41.000  0.00  0.00    +0.050 A 
ATOM     15  C   UNL     1      49.838 161.027  41.304  0.00  0.00    +0.009 A 
ATOM     16  C   UNL     1      50.692 162.130  41.476  0.00  0.00    -0.026 A 
ATOM     17  C   UNL     1      50.127 163.390  41.328  0.00  0.00    +0.016 A 
ATOM     18  C   UNL     1      52.136 161.934  41.865  0.00  0.00    +0.119 C 
ENDROOT
BRANCH  13  19
ATOM     19  O   UNL     1      46.616 162.745  40.564  0.00  0.00    -0.491 OA
ATOM     20  C   UNL     1      46.273 162.851  39.190  0.00  0.00    +0.277 C 
ENDBRANCH  13  19
BRANCH   8  21
ATOM     21  O   UNL     1      49.466 168.328  43.274  0.00  0.00    -0.388 OA
ATOM     22  H   UNL     1      49.531 168.272  44.242  0.00  0.00    +0.210 HD
ENDBRANCH   8  21
TORSDOF 2
ENDMDL
MODEL 8
REMARK VINA RESULT:    -6.053      1.820      4.996
REMARK INTER + INTRA:          -6.663
REMARK INTER:                  -6.568
REMARK INTRA:                  -0.095
REMARK UNBOUND:                -0.079
REMARK  Name = 
REMARK  4 active torsions:
REMARK  status: ('A' for Active; 'I' for Inactive)
REMARK    1  A    between atoms: C_1  and  N_2
REMARK    2  A    between atoms: C_8  and  O_21
REMARK    3  A    between atoms: C_13  and  O_19
REMARK    4  A    between atoms: O_19  and  C_20
REMARK                            x       y       z     vdW  Elec       q    Type
REMARK                         _______ _______ _______ _____ _____    ______ ____
ROOT
ATOM      1  C   UNL     1      51.871 165.230  42.026  0.00  0.00    +0.105 C 
ATOM      2  N   UNL     1      52.152 163.815  42.299  0.00  0.00    -0.301 NA
ATOM      3  C   UNL     1      53.611 163.617  42.365  0.00  0.00    +0.086 C 
ATOM      4  C   UNL     1      54.043 162.307  43.035  0.00  0.00    +0.035 C 
ATOM      5  C   UNL     1      53.750 161.009  42.262  0.00  0.00    +0.056 C 
ATOM      6  C   UNL     1      54.458 160.972  40.915  0.00  0.00    -0.013 C 
ATOM      7  C   UNL     1      55.372 160.050  40.576  0.00  0.00    +0.001 C 
ATOM      8  C   UNL     1      55.816 158.955  41.488  0.00  0.00    +0.141 C 
ATOM      9  C   UNL     1      55.524 159.260  42.954  0.00  0.00    +0.081 C 
ATOM     10  C   UNL     1      54.102 159.776  43.155  0.00  0.00    +0.191 C 
ATOM     11  O   UNL     1      53.162 158.712  42.863  0.00  0.00    -0.484 OA
ATOM     12  C   UNL     1      52.037 159.391  42.452  0.00  0.00    +0.167 A 
ATOM     13  C   UNL     1      50.774 158.824  42.367  0.00  0.00    +0.162 A 
ATOM     14  C   UNL     1      49.735 159.654  41.941  0.00  0.00    +0.050 A 
ATOM     15  C   UNL     1      49.981 161.000  41.608  0.00  0.00    +0.009 A 
ATOM     16  C   UNL     1      51.269 161.559  41.686  0.00  0.00    -0.026 A 
ATOM     17  C   UNL     1      52.291 160.721  42.113  0.00  0.00    +0.016 A 
ATOM     18  C   UNL     1      51.517 162.985  41.262  0.00  0.00    +0.119 C 
ENDROOT
BRANCH  13  19
ATOM     19  O   UNL     1      50.664 157.510  42.717  0.00  0.00    -0.491 OA
ATOM     20  C   UNL     1      50.180 156.617  41.724  0.00  0.00    +0.277 C 
ENDBRANCH  13  19
BRANCH   8  21
ATOM     21  O   UNL     1      57.222 158.807  41.321  0.00  0.00    -0.388 OA
ATOM     22  H   UNL     1      57.578 158.517  42.177  0.00  0.00    +0.210 HD
ENDBRANCH   8  21
TORSDOF 2
ENDMDL
MODEL 9
REMARK VINA RESULT:    -5.856      3.470      4.850
REMARK INTER + INTRA:          -6.448
REMARK INTER:                  -6.351
REMARK INTRA:                  -0.098
REMARK UNBOUND:                -0.079
REMARK  Name = 
REMARK  4 active torsions:
REMARK  status: ('A' for Active; 'I' for Inactive)
REMARK    1  A    between atoms: C_1  and  N_2
REMARK    2  A    between atoms: C_8  and  O_21
REMARK    3  A    between atoms: C_13  and  O_19
REMARK    4  A    between atoms: O_19  and  C_20
REMARK                            x       y       z     vdW  Elec       q    Type
REMARK                         _______ _______ _______ _____ _____    ______ ____
ROOT
ATOM      1  C   UNL     1      49.160 168.405  42.031  0.00  0.00    +0.105 C 
ATOM      2  N   UNL     1      49.641 167.033  41.830  0.00  0.00    -0.301 NA
ATOM      3  C   UNL     1      48.487 166.143  41.613  0.00  0.00    +0.086 C 
ATOM      4  C   UNL     1      48.840 164.785  40.993  0.00  0.00    +0.035 C 
ATOM      5  C   UNL     1      49.621 163.804  41.884  0.00  0.00    +0.056 C 
ATOM      6  C   UNL     1      48.847 163.433  43.142  0.00  0.00    -0.013 C 
ATOM      7  C   UNL     1      48.461 162.183  43.441  0.00  0.00    +0.001 C 
ATOM      8  C   UNL     1      48.731 161.005  42.564  0.00  0.00    +0.141 C 
ATOM      9  C   UNL     1      49.031 161.405  41.123  0.00  0.00    +0.081 C 
ATOM     10  C   UNL     1      50.035 162.551  41.048  0.00  0.00    +0.191 C 
ATOM     11  O   UNL     1      51.325 162.088  41.519  0.00  0.00    -0.484 OA
ATOM     12  C   UNL     1      51.912 163.235  42.005  0.00  0.00    +0.167 A 
ATOM     13  C   UNL     1      53.267 163.362  42.274  0.00  0.00    +0.162 A 
ATOM     14  C   UNL     1      53.704 164.598  42.753  0.00  0.00    +0.050 A 
ATOM     15  C   UNL     1      52.793 165.652  42.960  0.00  0.00    +0.009 A 
ATOM     16  C   UNL     1      51.419 165.506  42.697  0.00  0.00    -0.026 A 
ATOM     17  C   UNL     1      51.001 164.271  42.219  0.00  0.00    +0.016 A 
ATOM     18  C   UNL     1      50.455 166.628  42.988  0.00  0.00    +0.119 C 
ENDROOT
BRANCH  13  19
ATOM     19  O   UNL     1      54.048 162.270  42.033  0.00  0.00    -0.491 OA
ATOM     20  C   UNL     1      54.473 161.519  43.161  0.00  0.00    +0.277 C 
ENDBRANCH  13  19
BRANCH   8  21
ATOM     21  O   UNL     1      47.567 160.186  42.582  0.00  0.00    -0.388 OA
ATOM     22  H   UNL     1      47.777 159.411  43.129  0.00  0.00    +0.210 HD
ENDBRANCH   8  21
TORSDOF 2
ENDMDL
