MODEL 1
REMARK VINA RESULT:    -8.541      0.000      0.000
REMARK INTER + INTRA:         -10.010
REMARK INTER:                  -9.789
REMARK INTRA:                  -0.221
REMARK UNBOUND:                -0.221
REMARK  Name = 
REMARK  4 active torsions:
REMARK  status: ('A' for Active; 'I' for Inactive)
REMARK    1  A    between atoms: C_3  and  O_20
REMARK    2  A    between atoms: C_6  and  C_7
REMARK    3  A    between atoms: C_12  and  O_19
REMARK    4  A    between atoms: C_14  and  O_18
REMARK                            x       y       z     vdW  Elec       q    Type
REMARK                         _______ _______ _______ _____ _____    ______ ____
ROOT
ATOM      1  C   UNL     1      48.832 159.534  42.111  0.00  0.00    +0.064 A 
ATOM      2  C   UNL     1      47.529 159.838  42.010  0.00  0.00    +0.208 A 
ATOM      3  O   UNL     1      46.990 161.052  41.662  0.00  0.00    -0.462 OA
ATOM      4  C   UNL     1      47.855 162.080  41.387  0.00  0.00    +0.145 A 
ATOM      5  C   UNL     1      47.292 163.305  41.031  0.00  0.00    +0.092 A 
ATOM      6  C   UNL     1      48.123 164.385  40.744  0.00  0.00    +0.124 A 
ATOM      7  C   UNL     1      49.508 164.260  40.806  0.00  0.00    +0.091 A 
ATOM      8  C   UNL     1      50.064 163.035  41.164  0.00  0.00    +0.135 A 
ATOM      9  C   UNL     1      49.240 161.940  41.456  0.00  0.00    +0.106 A 
ATOM     10  C   UNL     1      49.799 160.632  41.837  0.00  0.00    +0.204 A 
ATOM     11  O   UNL     1      51.017 160.495  41.913  0.00  0.00    -0.286 OA
ENDROOT
BRANCH   1  17
ATOM     12  C   UNL     1      48.984 157.691  43.793  0.00  0.00    +0.012 A 
ATOM     13  C   UNL     1      49.386 156.408  44.176  0.00  0.00    +0.046 A 
ATOM     14  C   UNL     1      50.074 155.609  43.269  0.00  0.00    +0.117 A 
ATOM     15  C   UNL     1      50.367 156.072  41.994  0.00  0.00    +0.046 A 
ATOM     16  C   UNL     1      49.966 157.356  41.614  0.00  0.00    +0.012 A 
ATOM     17  C   UNL     1      49.264 158.181  42.508  0.00  0.00    -0.011 A 
BRANCH  14  18
ATOM     18  O   UNL     1      50.486 154.353  43.599  0.00  0.00    -0.507 OA
ATOM     19  H   UNL     1      50.388 153.780  42.820  0.00  0.00    +0.292 HD
ENDBRANCH  14  18
ENDBRANCH   1  17
BRANCH   8  20
ATOM     20  O   UNL     1      51.431 162.972  41.210  0.00  0.00    -0.506 OA
ATOM     21  H   UNL     1      51.765 163.841  41.531  0.00  0.00    +0.292 HD
ENDBRANCH   8  20
BRANCH   6  22
ATOM     22  O   UNL     1      47.532 165.564  40.398  0.00  0.00    -0.507 OA
ATOM     23  H   UNL     1      46.651 165.377  40.031  0.00  0.00    +0.292 HD
ENDBRANCH   6  22
TORSDOF 4
ENDMDL
MODEL 2
REMARK VINA RESULT:    -8.514      0.919      2.261
REMARK INTER + INTRA:          -9.979
REMARK INTER:                  -9.690
REMARK INTRA:                  -0.290
REMARK UNBOUND:                -0.221
REMARK  Name = 
REMARK  4 active torsions:
REMARK  status: ('A' for Active; 'I' for Inactive)
REMARK    1  A    between atoms: C_3  and  O_20
REMARK    2  A    between atoms: C_6  and  C_7
REMARK    3  A    between atoms: C_12  and  O_19
REMARK    4  A    between atoms: C_14  and  O_18
REMARK                            x       y       z     vdW  Elec       q    Type
REMARK                         _______ _______ _______ _____ _____    ______ ____
ROOT
ATOM      1  C   UNL     1      49.689 159.488  42.291  0.00  0.00    +0.064 A 
ATOM      2  C   UNL     1      50.862 160.120  42.126  0.00  0.00    +0.208 A 
ATOM      3  O   UNL     1      51.050 161.409  41.693  0.00  0.00    -0.462 OA
ATOM      4  C   UNL     1      49.937 162.150  41.387  0.00  0.00    +0.145 A 
ATOM      5  C   UNL     1      50.145 163.459  40.955  0.00  0.00    +0.092 A 
ATOM      6  C   UNL     1      49.051 164.256  40.628  0.00  0.00    +0.124 A 
ATOM      7  C   UNL     1      47.752 163.766  40.728  0.00  0.00    +0.091 A 
ATOM      8  C   UNL     1      47.551 162.457  41.160  0.00  0.00    +0.135 A 
ATOM      9  C   UNL     1      48.642 161.645  41.491  0.00  0.00    +0.106 A 
ATOM     10  C   UNL     1      48.461 160.257  41.950  0.00  0.00    +0.204 A 
ATOM     11  O   UNL     1      47.328 159.793  42.037  0.00  0.00    -0.286 OA
ENDROOT
BRANCH   1  17
ATOM     12  C   UNL     1      49.335 157.791  44.092  0.00  0.00    +0.012 A 
ATOM     13  C   UNL     1      49.286 156.468  44.539  0.00  0.00    +0.046 A 
ATOM     14  C   UNL     1      49.546 155.434  43.646  0.00  0.00    +0.117 A 
ATOM     15  C   UNL     1      49.858 155.703  42.321  0.00  0.00    +0.046 A 
ATOM     16  C   UNL     1      49.909 157.027  41.875  0.00  0.00    +0.012 A 
ATOM     17  C   UNL     1      49.643 158.089  42.755  0.00  0.00    -0.011 A 
BRANCH  14  18
ATOM     18  O   UNL     1      49.511 154.130  44.038  0.00  0.00    -0.507 OA
ATOM     19  H   UNL     1      50.395 153.746  43.918  0.00  0.00    +0.292 HD
ENDBRANCH  14  18
ENDBRANCH   1  17
BRANCH   8  20
ATOM     20  O   UNL     1      46.253 162.030  41.237  0.00  0.00    -0.506 OA
ATOM     21  H   UNL     1      45.791 162.578  41.914  0.00  0.00    +0.292 HD
ENDBRANCH   8  20
BRANCH   6  22
ATOM     22  O   UNL     1      49.298 165.530  40.210  0.00  0.00    -0.507 OA
ATOM     23  H   UNL     1      50.236 165.735  40.367  0.00  0.00    +0.292 HD
ENDBRANCH   6  22
TORSDOF 4
ENDMDL
MODEL 3
REMARK VINA RESULT:    -8.243      1.298      6.701
REMARK INTER + INTRA:          -9.668
REMARK INTER:                  -9.443
REMARK INTRA:                  -0.225
REMARK UNBOUND:                -0.221
REMARK  Name = 
REMARK  4 active torsions:
REMARK  status: ('A' for Active; 'I' for Inactive)
REMARK    1  A    between atoms: C_3  and  O_20
REMARK    2  A    between atoms: C_6  and  C_7
REMARK    3  A    between atoms: C_12  and  O_19
REMARK    4  A    between atoms: C_14  and  O_18
REMARK                            x       y       z     vdW  Elec       q    Type
REMARK                         _______ _______ _______ _____ _____    ______ ____
ROOT
ATOM      1  C   UNL     1      48.698 160.291  42.010  0.00  0.00    +0.064 A 
ATOM      2  C   UNL     1      47.680 159.490  42.362  0.00  0.00    +0.208 A 
ATOM      3  O   UNL     1      47.763 158.182  42.770  0.00  0.00    -0.462 OA
ATOM      4  C   UNL     1      49.006 157.608  42.828  0.00  0.00    +0.145 A 
ATOM      5  C   UNL     1      49.074 156.280  43.249  0.00  0.00    +0.092 A 
ATOM      6  C   UNL     1      50.311 155.646  43.325  0.00  0.00    +0.124 A 
ATOM      7  C   UNL     1      51.482 156.317  42.988  0.00  0.00    +0.091 A 
ATOM      8  C   UNL     1      51.409 157.643  42.567  0.00  0.00    +0.135 A 
ATOM      9  C   UNL     1      50.171 158.293  42.486  0.00  0.00    +0.106 A 
ATOM     10  C   UNL     1      50.061 159.694  42.045  0.00  0.00    +0.204 A 
ATOM     11  O   UNL     1      51.076 160.309  41.729  0.00  0.00    -0.286 OA
ENDROOT
BRANCH   1  17
ATOM     12  C   UNL     1      48.904 162.757  42.360  0.00  0.00    +0.012 A 
ATOM     13  C   UNL     1      48.679 164.077  41.959  0.00  0.00    +0.046 A 
ATOM     14  C   UNL     1      48.002 164.324  40.770  0.00  0.00    +0.117 A 
ATOM     15  C   UNL     1      47.543 163.276  39.984  0.00  0.00    +0.046 A 
ATOM     16  C   UNL     1      47.766 161.958  40.388  0.00  0.00    +0.012 A 
ATOM     17  C   UNL     1      48.454 161.680  41.581  0.00  0.00    -0.011 A 
BRANCH  14  18
ATOM     18  O   UNL     1      47.759 165.594  40.340  0.00  0.00    -0.507 OA
ATOM     19  H   UNL     1      47.003 165.950  40.835  0.00  0.00    +0.292 HD
ENDBRANCH  14  18
ENDBRANCH   1  17
BRANCH   8  20
ATOM     20  O   UNL     1      52.593 158.251  42.249  0.00  0.00    -0.506 OA
ATOM     21  H   UNL     1      52.388 159.077  41.753  0.00  0.00    +0.292 HD
ENDBRANCH   8  20
BRANCH   6  22
ATOM     22  O   UNL     1      50.332 154.348  43.742  0.00  0.00    -0.507 OA
ATOM     23  H   UNL     1      49.667 154.233  44.443  0.00  0.00    +0.292 HD
ENDBRANCH   6  22
TORSDOF 4
ENDMDL
MODEL 4
REMARK VINA RESULT:    -8.062      1.331      7.092
REMARK INTER + INTRA:          -9.461
REMARK INTER:                  -9.335
REMARK INTRA:                  -0.126
REMARK UNBOUND:                -0.221
REMARK  Name = 
REMARK  4 active torsions:
REMARK  status: ('A' for Active; 'I' for Inactive)
REMARK    1  A    between atoms: C_3  and  O_20
REMARK    2  A    between atoms: C_6  and  C_7
REMARK    3  A    between atoms: C_12  and  O_19
REMARK    4  A    between atoms: C_14  and  O_18
REMARK                            x       y       z     vdW  Elec       q    Type
REMARK                         _______ _______ _______ _____ _____    ______ ____
ROOT
ATOM      1  C   UNL     1      49.534 160.849  41.853  0.00  0.00    +0.064 A 
ATOM      2  C   UNL     1      50.856 160.626  41.788  0.00  0.00    +0.208 A 
ATOM      3  O   UNL     1      51.511 159.459  42.095  0.00  0.00    -0.462 OA
ATOM      4  C   UNL     1      50.757 158.395  42.519  0.00  0.00    +0.145 A 
ATOM      5  C   UNL     1      51.437 157.216  42.822  0.00  0.00    +0.092 A 
ATOM      6  C   UNL     1      50.722 156.104  43.260  0.00  0.00    +0.124 A 
ATOM      7  C   UNL     1      49.338 156.152  43.399  0.00  0.00    +0.091 A 
ATOM      8  C   UNL     1      48.664 157.333  43.095  0.00  0.00    +0.135 A 
ATOM      9  C   UNL     1      49.372 158.458  42.654  0.00  0.00    +0.106 A 
ATOM     10  C   UNL     1      48.687 159.721  42.327  0.00  0.00    +0.204 A 
ATOM     11  O   UNL     1      47.468 159.797  42.451  0.00  0.00    -0.286 OA
ENDROOT
BRANCH   1  17
ATOM     12  C   UNL     1      47.972 162.275  40.521  0.00  0.00    +0.012 A 
ATOM     13  C   UNL     1      47.431 163.519  40.183  0.00  0.00    +0.046 A 
ATOM     14  C   UNL     1      47.891 164.662  40.826  0.00  0.00    +0.117 A 
ATOM     15  C   UNL     1      48.883 164.581  41.794  0.00  0.00    +0.046 A 
ATOM     16  C   UNL     1      49.424 163.337  42.129  0.00  0.00    +0.012 A 
ATOM     17  C   UNL     1      48.972 162.166  41.499  0.00  0.00    -0.011 A 
BRANCH  14  18
ATOM     18  O   UNL     1      47.394 165.896  40.528  0.00  0.00    -0.507 OA
ATOM     19  H   UNL     1      46.455 165.920  40.777  0.00  0.00    +0.292 HD
ENDBRANCH  14  18
ENDBRANCH   1  17
BRANCH   8  20
ATOM     20  O   UNL     1      47.305 157.320  43.252  0.00  0.00    -0.506 OA
ATOM     21  H   UNL     1      46.988 156.401  43.089  0.00  0.00    +0.292 HD
ENDBRANCH   8  20
BRANCH   6  22
ATOM     22  O   UNL     1      51.425 154.971  43.544  0.00  0.00    -0.507 OA
ATOM     23  H   UNL     1      51.495 154.880  44.510  0.00  0.00    +0.292 HD
ENDBRANCH   6  22
TORSDOF 4
ENDMDL
MODEL 5
REMARK VINA RESULT:    -7.576      1.432      6.743
REMARK INTER + INTRA:          -8.904
REMARK INTER:                  -9.193
REMARK INTRA:                   0.289
REMARK UNBOUND:                -0.221
REMARK  Name = 
REMARK  4 active torsions:
REMARK  status: ('A' for Active; 'I' for Inactive)
REMARK    1  A    between atoms: C_3  and  O_20
REMARK    2  A    between atoms: C_6  and  C_7
REMARK    3  A    between atoms: C_12  and  O_19
REMARK    4  A    between atoms: C_14  and  O_18
REMARK                            x       y       z     vdW  Elec       q    Type
REMARK                         _______ _______ _______ _____ _____    ______ ____
ROOT
ATOM      1  C   UNL     1      49.380 160.670  41.883  0.00  0.00    +0.064 A 
ATOM      2  C   UNL     1      48.159 160.150  42.087  0.00  0.00    +0.208 A 
ATOM      3  O   UNL     1      47.865 158.905  42.583  0.00  0.00    -0.462 OA
ATOM      4  C   UNL     1      48.913 158.083  42.909  0.00  0.00    +0.145 A 
ATOM      5  C   UNL     1      48.599 156.823  43.416  0.00  0.00    +0.092 A 
ATOM      6  C   UNL     1      49.623 155.946  43.762  0.00  0.00    +0.124 A 
ATOM      7  C   UNL     1      50.958 156.308  43.609  0.00  0.00    +0.091 A 
ATOM      8  C   UNL     1      51.267 157.568  43.101  0.00  0.00    +0.135 A 
ATOM      9  C   UNL     1      50.246 158.459  42.749  0.00  0.00    +0.106 A 
ATOM     10  C   UNL     1      50.541 159.797  42.209  0.00  0.00    +0.204 A 
ATOM     11  O   UNL     1      51.709 160.141  42.052  0.00  0.00    -0.286 OA
ENDROOT
BRANCH   1  17
ATOM     12  C   UNL     1      50.786 162.674  41.378  0.00  0.00    +0.012 A 
ATOM     13  C   UNL     1      50.947 163.960  40.853  0.00  0.00    +0.046 A 
ATOM     14  C   UNL     1      49.859 164.604  40.276  0.00  0.00    +0.117 A 
ATOM     15  C   UNL     1      48.617 163.988  40.221  0.00  0.00    +0.046 A 
ATOM     16  C   UNL     1      48.456 162.704  40.748  0.00  0.00    +0.012 A 
ATOM     17  C   UNL     1      49.541 162.027  41.330  0.00  0.00    -0.011 A 
BRANCH  14  18
ATOM     18  O   UNL     1      49.970 165.857  39.753  0.00  0.00    -0.507 OA
ATOM     19  H   UNL     1      49.095 166.280  39.772  0.00  0.00    +0.292 HD
ENDBRANCH  14  18
ENDBRANCH   1  17
BRANCH   8  20
ATOM     20  O   UNL     1      52.596 157.868  42.972  0.00  0.00    -0.506 OA
ATOM     21  H   UNL     1      52.670 158.797  42.653  0.00  0.00    +0.292 HD
ENDBRANCH   8  20
BRANCH   6  22
ATOM     22  O   UNL     1      49.272 154.724  44.255  0.00  0.00    -0.507 OA
ATOM     23  H   UNL     1      49.754 154.571  45.086  0.00  0.00    +0.292 HD
ENDBRANCH   6  22
TORSDOF 4
ENDMDL
MODEL 6
REMARK VINA RESULT:    -7.059      3.100      6.344
REMARK INTER + INTRA:          -8.312
REMARK INTER:                  -8.012
REMARK INTRA:                  -0.300
REMARK UNBOUND:                -0.221
REMARK  Name = 
REMARK  4 active torsions:
REMARK  status: ('A' for Active; 'I' for Inactive)
REMARK    1  A    between atoms: C_3  and  O_20
REMARK    2  A    between atoms: C_6  and  C_7
REMARK    3  A    between atoms: C_12  and  O_19
REMARK    4  A    between atoms: C_14  and  O_18
REMARK                            x       y       z     vdW  Elec       q    Type
REMARK                         _______ _______ _______ _____ _____    ______ ____
ROOT
ATOM      1  C   UNL     1      50.422 160.593  42.031  0.00  0.00    +0.064 A 
ATOM      2  C   UNL     1      50.472 159.296  42.372  0.00  0.00    +0.208 A 
ATOM      3  O   UNL     1      51.597 158.517  42.487  0.00  0.00    -0.462 OA
ATOM      4  C   UNL     1      52.809 159.102  42.228  0.00  0.00    +0.145 A 
ATOM      5  C   UNL     1      53.942 158.299  42.354  0.00  0.00    +0.092 A 
ATOM      6  C   UNL     1      55.199 158.840  42.100  0.00  0.00    +0.124 A 
ATOM      7  C   UNL     1      55.343 160.172  41.722  0.00  0.00    +0.091 A 
ATOM      8  C   UNL     1      54.208 160.969  41.597  0.00  0.00    +0.135 A 
ATOM      9  C   UNL     1      52.937 160.437  41.849  0.00  0.00    +0.106 A 
ATOM     10  C   UNL     1      51.719 161.255  41.724  0.00  0.00    +0.204 A 
ATOM     11  O   UNL     1      51.813 162.431  41.381  0.00  0.00    -0.286 OA
ENDROOT
BRANCH   1  17
ATOM     12  C   UNL     1      48.463 161.405  40.708  0.00  0.00    +0.012 A 
ATOM     13  C   UNL     1      47.237 162.071  40.611  0.00  0.00    +0.046 A 
ATOM     14  C   UNL     1      46.675 162.636  41.751  0.00  0.00    +0.117 A 
ATOM     15  C   UNL     1      47.319 162.550  42.977  0.00  0.00    +0.046 A 
ATOM     16  C   UNL     1      48.545 161.887  43.071  0.00  0.00    +0.012 A 
ATOM     17  C   UNL     1      49.131 161.301  41.937  0.00  0.00    -0.011 A 
BRANCH  14  18
ATOM     18  O   UNL     1      45.483 163.295  41.704  0.00  0.00    -0.507 OA
ATOM     19  H   UNL     1      45.625 164.213  41.989  0.00  0.00    +0.292 HD
ENDBRANCH  14  18
ENDBRANCH   1  17
BRANCH   8  20
ATOM     20  O   UNL     1      54.412 162.270  41.222  0.00  0.00    -0.506 OA
ATOM     21  H   UNL     1      54.662 162.783  42.025  0.00  0.00    +0.292 HD
ENDBRANCH   8  20
BRANCH   6  22
ATOM     22  O   UNL     1      56.280 158.020  42.236  0.00  0.00    -0.507 OA
ATOM     23  H   UNL     1      56.525 157.978  43.177  0.00  0.00    +0.292 HD
ENDBRANCH   6  22
TORSDOF 4
ENDMDL
MODEL 7
REMARK VINA RESULT:    -7.012      2.491      6.959
REMARK INTER + INTRA:          -8.257
REMARK INTER:                  -8.020
REMARK INTRA:                  -0.237
REMARK UNBOUND:                -0.221
REMARK  Name = 
REMARK  4 active torsions:
REMARK  status: ('A' for Active; 'I' for Inactive)
REMARK    1  A    between atoms: C_3  and  O_20
REMARK    2  A    between atoms: C_6  and  C_7
REMARK    3  A    between atoms: C_12  and  O_19
REMARK    4  A    between atoms: C_14  and  O_18
REMARK                            x       y       z     vdW  Elec       q    Type
REMARK                         _______ _______ _______ _____ _____    ______ ____
ROOT
ATOM      1  C   UNL     1      51.535 162.115  41.454  0.00  0.00    +0.064 A 
ATOM      2  C   UNL     1      52.287 161.086  41.872  0.00  0.00    +0.208 A 
ATOM      3  O   UNL     1      51.842 159.864  42.312  0.00  0.00    -0.462 OA
ATOM      4  C   UNL     1      50.488 159.649  42.340  0.00  0.00    +0.145 A 
ATOM      5  C   UNL     1      50.052 158.402  42.784  0.00  0.00    +0.092 A 
ATOM      6  C   UNL     1      48.688 158.129  42.836  0.00  0.00    +0.124 A 
ATOM      7  C   UNL     1      47.752 159.084  42.449  0.00  0.00    +0.091 A 
ATOM      8  C   UNL     1      48.193 160.329  42.007  0.00  0.00    +0.135 A 
ATOM      9  C   UNL     1      49.563 160.616  41.950  0.00  0.00    +0.106 A 
ATOM     10  C   UNL     1      50.059 161.923  41.488  0.00  0.00    +0.204 A 
ATOM     11  O   UNL     1      49.257 162.789  41.152  0.00  0.00    -0.286 OA
ENDROOT
BRANCH   1  17
ATOM     12  C   UNL     1      52.050 164.536  41.803  0.00  0.00    +0.012 A 
ATOM     13  C   UNL     1      52.640 165.737  41.398  0.00  0.00    +0.046 A 
ATOM     14  C   UNL     1      53.344 165.782  40.199  0.00  0.00    +0.117 A 
ATOM     15  C   UNL     1      53.461 164.652  39.402  0.00  0.00    +0.046 A 
ATOM     16  C   UNL     1      52.868 163.454  39.807  0.00  0.00    +0.012 A 
ATOM     17  C   UNL     1      52.158 163.379  41.017  0.00  0.00    -0.011 A 
BRANCH  14  18
ATOM     18  O   UNL     1      53.935 166.930  39.764  0.00  0.00    -0.507 OA
ATOM     19  H   UNL     1      53.665 167.089  38.844  0.00  0.00    +0.292 HD
ENDBRANCH  14  18
ENDBRANCH   1  17
BRANCH   8  20
ATOM     20  O   UNL     1      47.227 161.226  41.641  0.00  0.00    -0.506 OA
ATOM     21  H   UNL     1      46.625 160.782  41.001  0.00  0.00    +0.292 HD
ENDBRANCH   8  20
BRANCH   6  22
ATOM     22  O   UNL     1      48.305 156.897  43.275  0.00  0.00    -0.507 OA
ATOM     23  H   UNL     1      47.486 156.641  42.817  0.00  0.00    +0.292 HD
ENDBRANCH   6  22
TORSDOF 4
ENDMDL
MODEL 8
REMARK VINA RESULT:    -7.000      3.823      5.154
REMARK INTER + INTRA:          -8.244
REMARK INTER:                  -7.948
REMARK INTRA:                  -0.296
REMARK UNBOUND:                -0.221
REMARK  Name = 
REMARK  4 active torsions:
REMARK  status: ('A' for Active; 'I' for Inactive)
REMARK    1  A    between atoms: C_3  and  O_20
REMARK    2  A    between atoms: C_6  and  C_7
REMARK    3  A    between atoms: C_12  and  O_19
REMARK    4  A    between atoms: C_14  and  O_18
REMARK                            x       y       z     vdW  Elec       q    Type
REMARK                         _______ _______ _______ _____ _____    ______ ____
ROOT
ATOM      1  C   UNL     1      52.622 160.600  42.094  0.00  0.00    +0.064 A 
ATOM      2  C   UNL     1      52.325 161.837  41.666  0.00  0.00    +0.208 A 
ATOM      3  O   UNL     1      51.075 162.345  41.416  0.00  0.00    -0.462 OA
ATOM      4  C   UNL     1      49.998 161.520  41.613  0.00  0.00    +0.145 A 
ATOM      5  C   UNL     1      48.735 162.052  41.359  0.00  0.00    +0.092 A 
ATOM      6  C   UNL     1      47.606 161.258  41.540  0.00  0.00    +0.124 A 
ATOM      7  C   UNL     1      47.718 159.940  41.971  0.00  0.00    +0.091 A 
ATOM      8  C   UNL     1      48.983 159.413  42.222  0.00  0.00    +0.135 A 
ATOM      9  C   UNL     1      50.127 160.201  42.044  0.00  0.00    +0.106 A 
ATOM     10  C   UNL     1      51.477 159.671  42.301  0.00  0.00    +0.204 A 
ATOM     11  O   UNL     1      51.609 158.508  42.671  0.00  0.00    -0.286 OA
ENDROOT
BRANCH   1  17
ATOM     12  C   UNL     1      54.724 159.494  41.314  0.00  0.00    +0.012 A 
ATOM     13  C   UNL     1      56.052 159.105  41.510  0.00  0.00    +0.046 A 
ATOM     14  C   UNL     1      56.685 159.414  42.709  0.00  0.00    +0.117 A 
ATOM     15  C   UNL     1      56.011 160.098  43.712  0.00  0.00    +0.046 A 
ATOM     16  C   UNL     1      54.683 160.483  43.515  0.00  0.00    +0.012 A 
ATOM     17  C   UNL     1      54.022 160.190  42.310  0.00  0.00    -0.011 A 
BRANCH  14  18
ATOM     18  O   UNL     1      57.978 159.054  42.944  0.00  0.00    -0.507 OA
ATOM     19  H   UNL     1      57.983 158.195  43.398  0.00  0.00    +0.292 HD
ENDBRANCH  14  18
ENDBRANCH   1  17
BRANCH   8  20
ATOM     20  O   UNL     1      49.032 158.111  42.643  0.00  0.00    -0.506 OA
ATOM     21  H   UNL     1      49.384 157.565  41.904  0.00  0.00    +0.292 HD
ENDBRANCH   8  20
BRANCH   6  22
ATOM     22  O   UNL     1      46.390 161.819  41.282  0.00  0.00    -0.507 OA
ATOM     23  H   UNL     1      46.379 162.722  41.641  0.00  0.00    +0.292 HD
ENDBRANCH   6  22
TORSDOF 4
ENDMDL
MODEL 9
REMARK VINA RESULT:    -6.913      2.574      6.873
REMARK INTER + INTRA:          -8.144
REMARK INTER:                  -7.940
REMARK INTRA:                  -0.204
REMARK UNBOUND:                -0.221
REMARK  Name = 
REMARK  4 active torsions:
REMARK  status: ('A' for Active; 'I' for Inactive)
REMARK    1  A    between atoms: C_3  and  O_20
REMARK    2  A    between atoms: C_6  and  C_7
REMARK    3  A    between atoms: C_12  and  O_19
REMARK    4  A    between atoms: C_14  and  O_18
REMARK                            x       y       z     vdW  Elec       q    Type
REMARK                         _______ _______ _______ _____ _____    ______ ____
ROOT
ATOM      1  C   UNL     1      50.919 162.706  41.316  0.00  0.00    +0.064 A 
ATOM      2  C   UNL     1      49.588 162.872  41.263  0.00  0.00    +0.208 A 
ATOM      3  O   UNL     1      48.627 161.954  41.608  0.00  0.00    -0.462 OA
ATOM      4  C   UNL     1      49.047 160.727  42.053  0.00  0.00    +0.145 A 
ATOM      5  C   UNL     1      48.059 159.807  42.404  0.00  0.00    +0.092 A 
ATOM      6  C   UNL     1      48.428 158.544  42.859  0.00  0.00    +0.124 A 
ATOM      7  C   UNL     1      49.768 158.185  42.971  0.00  0.00    +0.091 A 
ATOM      8  C   UNL     1      50.750 159.108  42.619  0.00  0.00    +0.135 A 
ATOM      9  C   UNL     1      50.393 160.382  42.158  0.00  0.00    +0.106 A 
ATOM     10  C   UNL     1      51.409 161.378  41.777  0.00  0.00    +0.204 A 
ATOM     11  O   UNL     1      52.599 161.087  41.854  0.00  0.00    -0.286 OA
ENDROOT
BRANCH   1  17
ATOM     12  C   UNL     1      52.645 163.636  39.766  0.00  0.00    +0.012 A 
ATOM     13  C   UNL     1      53.512 164.656  39.364  0.00  0.00    +0.046 A 
ATOM     14  C   UNL     1      53.568 165.835  40.099  0.00  0.00    +0.117 A 
ATOM     15  C   UNL     1      52.777 166.006  41.227  0.00  0.00    +0.046 A 
ATOM     16  C   UNL     1      51.914 164.984  41.630  0.00  0.00    +0.012 A 
ATOM     17  C   UNL     1      51.833 163.786  40.901  0.00  0.00    -0.011 A 
BRANCH  14  18
ATOM     18  O   UNL     1      54.398 166.856  39.745  0.00  0.00    -0.507 OA
ATOM     19  H   UNL     1      55.157 166.863  40.352  0.00  0.00    +0.292 HD
ENDBRANCH  14  18
ENDBRANCH   1  17
BRANCH   8  20
ATOM     20  O   UNL     1      52.049 158.699  42.749  0.00  0.00    -0.506 OA
ATOM     21  H   UNL     1      52.623 159.500  42.748  0.00  0.00    +0.292 HD
ENDBRANCH   8  20
BRANCH   6  22
ATOM     22  O   UNL     1      47.431 157.676  43.193  0.00  0.00    -0.507 OA
ATOM     23  H   UNL     1      46.699 158.178  43.591  0.00  0.00    +0.292 HD
ENDBRANCH   6  22
TORSDOF 4
ENDMDL
