MODEL 1
REMARK VINA RESULT:    -8.606      0.000      0.000
REMARK INTER + INTRA:         -10.842
REMARK INTER:                 -10.618
REMARK INTRA:                  -0.224
REMARK UNBOUND:                -0.224
REMARK  Name = 
REMARK  7 active torsions:
REMARK  status: ('A' for Active; 'I' for Inactive)
REMARK    1  A    between atoms: C_2  and  C_10
REMARK    2  A    between atoms: C_4  and  O_9
REMARK    3  A    between atoms: C_5  and  O_8
REMARK    4  A    between atoms: C_6  and  O_7
REMARK    5  A    between atoms: C_11  and  O_23
REMARK    6  A    between atoms: C_15  and  O_22
REMARK    7  A    between atoms: C_17  and  O_21
REMARK                            x       y       z     vdW  Elec       q    Type
REMARK                         _______ _______ _______ _____ _____    ______ ____
ROOT
ATOM      1  C   UNL     1      49.373 159.523  42.304  0.00  0.00    +0.181 A 
ATOM      2  C   UNL     1      48.135 160.026  42.165  0.00  0.00    +0.208 A 
ATOM      3  C   UNL     1      47.973 161.444  41.754  0.00  0.00    +0.238 A 
ATOM      4  O   UNL     1      46.830 161.880  41.655  0.00  0.00    -0.283 OA
ATOM      5  C   UNL     1      49.210 162.211  41.497  0.00  0.00    +0.109 A 
ATOM      6  C   UNL     1      49.210 163.547  41.078  0.00  0.00    +0.135 A 
ATOM      7  C   UNL     1      50.416 164.215  40.852  0.00  0.00    +0.091 A 
ATOM      8  C   UNL     1      51.620 163.544  41.045  0.00  0.00    +0.124 A 
ATOM      9  C   UNL     1      51.640 162.220  41.462  0.00  0.00    +0.092 A 
ATOM     10  C   UNL     1      50.430 161.557  41.688  0.00  0.00    +0.147 A 
ATOM     11  O   UNL     1      50.533 160.251  42.101  0.00  0.00    -0.451 OA
ENDROOT
BRANCH   1  13
ATOM     12  C   UNL     1      49.236 157.663  43.983  0.00  0.00    +0.061 A 
ATOM     13  C   UNL     1      49.630 158.129  42.716  0.00  0.00    +0.028 A 
ATOM     14  C   UNL     1      50.245 157.240  41.813  0.00  0.00    +0.061 A 
ATOM     15  C   UNL     1      50.466 155.916  42.186  0.00  0.00    +0.163 A 
ATOM     16  C   UNL     1      50.074 155.469  43.442  0.00  0.00    +0.201 A 
ATOM     17  C   UNL     1      49.462 156.338  44.334  0.00  0.00    +0.163 A 
BRANCH  17  18
ATOM     18  O   UNL     1      49.074 155.892  45.564  0.00  0.00    -0.503 OA
ATOM     19  H   UNL     1      48.096 155.919  45.539  0.00  0.00    +0.292 HD
ENDBRANCH  17  18
BRANCH  16  20
ATOM     20  O   UNL     1      50.284 154.169  43.816  0.00  0.00    -0.501 OA
ATOM     21  H   UNL     1      50.575 153.728  42.991  0.00  0.00    +0.292 HD
ENDBRANCH  16  20
BRANCH  15  22
ATOM     22  O   UNL     1      51.066 155.017  41.350  0.00  0.00    -0.503 OA
ATOM     23  H   UNL     1      51.733 154.524  41.859  0.00  0.00    +0.292 HD
ENDBRANCH  15  22
ENDBRANCH   1  13
BRANCH   8  24
ATOM     24  O   UNL     1      52.771 164.234  40.810  0.00  0.00    -0.507 OA
ATOM     25  H   UNL     1      53.527 163.722  41.144  0.00  0.00    +0.292 HD
ENDBRANCH   8  24
BRANCH   6  26
ATOM     26  O   UNL     1      48.039 164.220  40.880  0.00  0.00    -0.506 OA
ATOM     27  H   UNL     1      47.647 163.972  40.027  0.00  0.00    +0.292 HD
ENDBRANCH   6  26
BRANCH   2  28
ATOM     28  O   UNL     1      46.977 159.308  42.402  0.00  0.00    -0.501 OA
ATOM     29  H   UNL     1      46.537 159.255  41.525  0.00  0.00    +0.292 HD
ENDBRANCH   2  28
TORSDOF 7
ENDMDL
MODEL 2
REMARK VINA RESULT:    -8.447      1.198      3.322
REMARK INTER + INTRA:         -10.646
REMARK INTER:                 -10.423
REMARK INTRA:                  -0.224
REMARK UNBOUND:                -0.224
REMARK  Name = 
REMARK  7 active torsions:
REMARK  status: ('A' for Active; 'I' for Inactive)
REMARK    1  A    between atoms: C_2  and  C_10
REMARK    2  A    between atoms: C_4  and  O_9
REMARK    3  A    between atoms: C_5  and  O_8
REMARK    4  A    between atoms: C_6  and  O_7
REMARK    5  A    between atoms: C_11  and  O_23
REMARK    6  A    between atoms: C_15  and  O_22
REMARK    7  A    between atoms: C_17  and  O_21
REMARK                            x       y       z     vdW  Elec       q    Type
REMARK                         _______ _______ _______ _____ _____    ______ ____
ROOT
ATOM      1  C   UNL     1      49.778 159.695  42.272  0.00  0.00    +0.181 A 
ATOM      2  C   UNL     1      50.908 160.409  42.131  0.00  0.00    +0.208 A 
ATOM      3  C   UNL     1      50.817 161.839  41.740  0.00  0.00    +0.238 A 
ATOM      4  O   UNL     1      51.867 162.457  41.599  0.00  0.00    -0.283 OA
ATOM      5  C   UNL     1      49.460 162.395  41.553  0.00  0.00    +0.109 A 
ATOM      6  C   UNL     1      49.220 163.732  41.211  0.00  0.00    +0.135 A 
ATOM      7  C   UNL     1      47.912 164.194  41.051  0.00  0.00    +0.091 A 
ATOM      8  C   UNL     1      46.846 163.318  41.233  0.00  0.00    +0.124 A 
ATOM      9  C   UNL     1      47.064 161.989  41.570  0.00  0.00    +0.092 A 
ATOM     10  C   UNL     1      48.375 161.531  41.729  0.00  0.00    +0.147 A 
ATOM     11  O   UNL     1      48.509 160.205  42.060  0.00  0.00    -0.451 OA
ENDROOT
BRANCH   1  13
ATOM     12  C   UNL     1      50.354 157.296  41.815  0.00  0.00    +0.061 A 
ATOM     13  C   UNL     1      49.773 158.268  42.649  0.00  0.00    +0.028 A 
ATOM     14  C   UNL     1      49.212 157.877  43.880  0.00  0.00    +0.061 A 
ATOM     15  C   UNL     1      49.227 156.536  44.254  0.00  0.00    +0.163 A 
ATOM     16  C   UNL     1      49.803 155.584  43.421  0.00  0.00    +0.201 A 
ATOM     17  C   UNL     1      50.363 155.964  42.210  0.00  0.00    +0.163 A 
BRANCH  17  18
ATOM     18  O   UNL     1      50.932 155.026  41.397  0.00  0.00    -0.503 OA
ATOM     19  H   UNL     1      50.345 154.988  40.616  0.00  0.00    +0.292 HD
ENDBRANCH  17  18
BRANCH  16  20
ATOM     20  O   UNL     1      49.826 154.264  43.782  0.00  0.00    -0.501 OA
ATOM     21  H   UNL     1      49.711 153.784  42.936  0.00  0.00    +0.292 HD
ENDBRANCH  16  20
BRANCH  15  22
ATOM     22  O   UNL     1      48.689 156.105  45.434  0.00  0.00    -0.503 OA
ATOM     23  H   UNL     1      47.861 156.591  45.587  0.00  0.00    +0.292 HD
ENDBRANCH  15  22
ENDBRANCH   1  13
BRANCH   8  24
ATOM     24  O   UNL     1      45.588 163.814  41.068  0.00  0.00    -0.507 OA
ATOM     25  H   UNL     1      44.943 163.184  41.433  0.00  0.00    +0.292 HD
ENDBRANCH   8  24
BRANCH   6  26
ATOM     26  O   UNL     1      50.254 164.605  41.031  0.00  0.00    -0.506 OA
ATOM     27  H   UNL     1      50.593 164.543  40.123  0.00  0.00    +0.292 HD
ENDBRANCH   6  26
BRANCH   2  28
ATOM     28  O   UNL     1      52.178 159.890  42.309  0.00  0.00    -0.501 OA
ATOM     29  H   UNL     1      52.748 160.422  41.711  0.00  0.00    +0.292 HD
ENDBRANCH   2  28
TORSDOF 7
ENDMDL
MODEL 3
REMARK VINA RESULT:    -8.438      1.626      2.031
REMARK INTER + INTRA:         -10.635
REMARK INTER:                 -10.639
REMARK INTRA:                   0.004
REMARK UNBOUND:                -0.224
REMARK  Name = 
REMARK  7 active torsions:
REMARK  status: ('A' for Active; 'I' for Inactive)
REMARK    1  A    between atoms: C_2  and  C_10
REMARK    2  A    between atoms: C_4  and  O_9
REMARK    3  A    between atoms: C_5  and  O_8
REMARK    4  A    between atoms: C_6  and  O_7
REMARK    5  A    between atoms: C_11  and  O_23
REMARK    6  A    between atoms: C_15  and  O_22
REMARK    7  A    between atoms: C_17  and  O_21
REMARK                            x       y       z     vdW  Elec       q    Type
REMARK                         _______ _______ _______ _____ _____    ______ ____
ROOT
ATOM      1  C   UNL     1      49.559 160.490  41.832  0.00  0.00    +0.181 A 
ATOM      2  C   UNL     1      48.245 160.725  41.986  0.00  0.00    +0.208 A 
ATOM      3  C   UNL     1      47.712 162.081  41.694  0.00  0.00    +0.238 A 
ATOM      4  O   UNL     1      46.512 162.269  41.863  0.00  0.00    -0.283 OA
ATOM      5  C   UNL     1      48.682 163.091  41.221  0.00  0.00    +0.109 A 
ATOM      6  C   UNL     1      48.320 164.401  40.882  0.00  0.00    +0.135 A 
ATOM      7  C   UNL     1      49.286 165.307  40.440  0.00  0.00    +0.091 A 
ATOM      8  C   UNL     1      50.613 164.901  40.337  0.00  0.00    +0.124 A 
ATOM      9  C   UNL     1      50.992 163.608  40.671  0.00  0.00    +0.092 A 
ATOM     10  C   UNL     1      50.021 162.705  41.113  0.00  0.00    +0.147 A 
ATOM     11  O   UNL     1      50.474 161.446  41.426  0.00  0.00    -0.451 OA
ENDROOT
BRANCH   1  13
ATOM     12  C   UNL     1      49.558 157.985  41.691  0.00  0.00    +0.061 A 
ATOM     13  C   UNL     1      50.176 159.178  42.107  0.00  0.00    +0.028 A 
ATOM     14  C   UNL     1      51.421 159.120  42.762  0.00  0.00    +0.061 A 
ATOM     15  C   UNL     1      52.022 157.886  43.001  0.00  0.00    +0.163 A 
ATOM     16  C   UNL     1      51.401 156.714  42.586  0.00  0.00    +0.201 A 
ATOM     17  C   UNL     1      50.177 156.766  41.934  0.00  0.00    +0.163 A 
BRANCH  17  18
ATOM     18  O   UNL     1      49.574 155.612  41.524  0.00  0.00    -0.503 OA
ATOM     19  H   UNL     1      48.822 155.495  42.139  0.00  0.00    +0.292 HD
ENDBRANCH  17  18
BRANCH  16  20
ATOM     20  O   UNL     1      51.985 155.498  42.813  0.00  0.00    -0.501 OA
ATOM     21  H   UNL     1      51.956 155.053  41.941  0.00  0.00    +0.292 HD
ENDBRANCH  16  20
BRANCH  15  22
ATOM     22  O   UNL     1      53.225 157.776  43.639  0.00  0.00    -0.503 OA
ATOM     23  H   UNL     1      53.170 158.262  44.480  0.00  0.00    +0.292 HD
ENDBRANCH  15  22
ENDBRANCH   1  13
BRANCH   8  24
ATOM     24  O   UNL     1      51.521 165.819  39.900  0.00  0.00    -0.507 OA
ATOM     25  H   UNL     1      51.440 166.630  40.430  0.00  0.00    +0.292 HD
ENDBRANCH   8  24
BRANCH   6  26
ATOM     26  O   UNL     1      47.022 164.815  40.973  0.00  0.00    -0.506 OA
ATOM     27  H   UNL     1      46.666 165.007  40.090  0.00  0.00    +0.292 HD
ENDBRANCH   6  26
BRANCH   2  28
ATOM     28  O   UNL     1      47.336 159.779  42.425  0.00  0.00    -0.501 OA
ATOM     29  H   UNL     1      47.885 159.106  42.885  0.00  0.00    +0.292 HD
ENDBRANCH   2  28
TORSDOF 7
ENDMDL
MODEL 4
REMARK VINA RESULT:    -8.401      0.616      1.817
REMARK INTER + INTRA:         -10.589
REMARK INTER:                 -10.263
REMARK INTRA:                  -0.326
REMARK UNBOUND:                -0.224
REMARK  Name = 
REMARK  7 active torsions:
REMARK  status: ('A' for Active; 'I' for Inactive)
REMARK    1  A    between atoms: C_2  and  C_10
REMARK    2  A    between atoms: C_4  and  O_9
REMARK    3  A    between atoms: C_5  and  O_8
REMARK    4  A    between atoms: C_6  and  O_7
REMARK    5  A    between atoms: C_11  and  O_23
REMARK    6  A    between atoms: C_15  and  O_22
REMARK    7  A    between atoms: C_17  and  O_21
REMARK                            x       y       z     vdW  Elec       q    Type
REMARK                         _______ _______ _______ _____ _____    ______ ____
ROOT
ATOM      1  C   UNL     1      49.097 159.949  42.158  0.00  0.00    +0.181 A 
ATOM      2  C   UNL     1      47.838 160.382  41.977  0.00  0.00    +0.208 A 
ATOM      3  C   UNL     1      47.612 161.774  41.510  0.00  0.00    +0.238 A 
ATOM      4  O   UNL     1      46.451 162.146  41.374  0.00  0.00    -0.283 OA
ATOM      5  C   UNL     1      48.814 162.594  41.249  0.00  0.00    +0.109 A 
ATOM      6  C   UNL     1      48.755 163.913  40.780  0.00  0.00    +0.135 A 
ATOM      7  C   UNL     1      49.929 164.633  40.553  0.00  0.00    +0.091 A 
ATOM      8  C   UNL     1      51.162 164.033  40.794  0.00  0.00    +0.124 A 
ATOM      9  C   UNL     1      51.240 162.728  41.261  0.00  0.00    +0.092 A 
ATOM     10  C   UNL     1      50.062 162.011  41.487  0.00  0.00    +0.147 A 
ATOM     11  O   UNL     1      50.222 160.728  41.951  0.00  0.00    -0.451 OA
ENDROOT
BRANCH   1  13
ATOM     12  C   UNL     1      49.898 157.609  41.739  0.00  0.00    +0.061 A 
ATOM     13  C   UNL     1      49.416 158.586  42.627  0.00  0.00    +0.028 A 
ATOM     14  C   UNL     1      49.270 158.269  43.991  0.00  0.00    +0.061 A 
ATOM     15  C   UNL     1      49.594 156.993  44.445  0.00  0.00    +0.163 A 
ATOM     16  C   UNL     1      50.069 156.035  43.557  0.00  0.00    +0.201 A 
ATOM     17  C   UNL     1      50.220 156.343  42.213  0.00  0.00    +0.163 A 
BRANCH  17  18
ATOM     18  O   UNL     1      50.692 155.400  41.345  0.00  0.00    -0.503 OA
ATOM     19  H   UNL     1      50.352 154.552  41.694  0.00  0.00    +0.292 HD
ENDBRANCH  17  18
BRANCH  16  20
ATOM     20  O   UNL     1      50.393 154.779  43.994  0.00  0.00    -0.501 OA
ATOM     21  H   UNL     1      50.960 154.938  44.777  0.00  0.00    +0.292 HD
ENDBRANCH  16  20
BRANCH  15  22
ATOM     22  O   UNL     1      49.463 156.633  45.757  0.00  0.00    -0.503 OA
ATOM     23  H   UNL     1      48.543 156.796  46.028  0.00  0.00    +0.292 HD
ENDBRANCH  15  22
ENDBRANCH   1  13
BRANCH   8  24
ATOM     24  O   UNL     1      52.281 164.773  40.556  0.00  0.00    -0.507 OA
ATOM     25  H   UNL     1      52.430 165.379  41.301  0.00  0.00    +0.292 HD
ENDBRANCH   8  24
BRANCH   6  26
ATOM     26  O   UNL     1      47.555 164.517  40.536  0.00  0.00    -0.506 OA
ATOM     27  H   UNL     1      47.049 164.606  41.360  0.00  0.00    +0.292 HD
ENDBRANCH   6  26
BRANCH   2  28
ATOM     28  O   UNL     1      46.714 159.614  42.218  0.00  0.00    -0.501 OA
ATOM     29  H   UNL     1      46.150 160.177  42.793  0.00  0.00    +0.292 HD
ENDBRANCH   2  28
TORSDOF 7
ENDMDL
MODEL 5
REMARK VINA RESULT:    -8.381      1.184      2.863
REMARK INTER + INTRA:         -10.565
REMARK INTER:                 -10.318
REMARK INTRA:                  -0.247
REMARK UNBOUND:                -0.224
REMARK  Name = 
REMARK  7 active torsions:
REMARK  status: ('A' for Active; 'I' for Inactive)
REMARK    1  A    between atoms: C_2  and  C_10
REMARK    2  A    between atoms: C_4  and  O_9
REMARK    3  A    between atoms: C_5  and  O_8
REMARK    4  A    between atoms: C_6  and  O_7
REMARK    5  A    between atoms: C_11  and  O_23
REMARK    6  A    between atoms: C_15  and  O_22
REMARK    7  A    between atoms: C_17  and  O_21
REMARK                            x       y       z     vdW  Elec       q    Type
REMARK                         _______ _______ _______ _____ _____    ______ ____
ROOT
ATOM      1  C   UNL     1      49.793 159.749  42.281  0.00  0.00    +0.181 A 
ATOM      2  C   UNL     1      50.901 160.489  42.102  0.00  0.00    +0.208 A 
ATOM      3  C   UNL     1      50.766 161.904  41.674  0.00  0.00    +0.238 A 
ATOM      4  O   UNL     1      51.796 162.546  41.499  0.00  0.00    -0.283 OA
ATOM      5  C   UNL     1      49.392 162.419  41.496  0.00  0.00    +0.109 A 
ATOM      6  C   UNL     1      49.110 163.740  41.123  0.00  0.00    +0.135 A 
ATOM      7  C   UNL     1      47.788 164.163  40.973  0.00  0.00    +0.091 A 
ATOM      8  C   UNL     1      46.749 163.265  41.197  0.00  0.00    +0.124 A 
ATOM      9  C   UNL     1      47.008 161.952  41.565  0.00  0.00    +0.092 A 
ATOM     10  C   UNL     1      48.333 161.533  41.714  0.00  0.00    +0.147 A 
ATOM     11  O   UNL     1      48.508 160.220  42.078  0.00  0.00    -0.451 OA
ENDROOT
BRANCH   1  13
ATOM     12  C   UNL     1      49.323 157.930  43.943  0.00  0.00    +0.061 A 
ATOM     13  C   UNL     1      49.833 158.334  42.697  0.00  0.00    +0.028 A 
ATOM     14  C   UNL     1      50.355 157.366  41.817  0.00  0.00    +0.061 A 
ATOM     15  C   UNL     1      50.371 156.025  42.192  0.00  0.00    +0.163 A 
ATOM     16  C   UNL     1      49.865 155.638  43.427  0.00  0.00    +0.201 A 
ATOM     17  C   UNL     1      49.344 156.586  44.296  0.00  0.00    +0.163 A 
BRANCH  17  18
ATOM     18  O   UNL     1      48.843 156.201  45.506  0.00  0.00    -0.503 OA
ATOM     19  H   UNL     1      47.936 156.565  45.524  0.00  0.00    +0.292 HD
ENDBRANCH  17  18
BRANCH  16  20
ATOM     20  O   UNL     1      49.874 154.322  43.803  0.00  0.00    -0.501 OA
ATOM     21  H   UNL     1      50.355 153.871  43.079  0.00  0.00    +0.292 HD
ENDBRANCH  16  20
BRANCH  15  22
ATOM     22  O   UNL     1      50.873 155.049  41.377  0.00  0.00    -0.503 OA
ATOM     23  H   UNL     1      51.755 154.802  41.706  0.00  0.00    +0.292 HD
ENDBRANCH  15  22
ENDBRANCH   1  13
BRANCH   8  24
ATOM     24  O   UNL     1      45.475 163.723  41.040  0.00  0.00    -0.507 OA
ATOM     25  H   UNL     1      45.109 163.378  40.208  0.00  0.00    +0.292 HD
ENDBRANCH   8  24
BRANCH   6  26
ATOM     26  O   UNL     1      50.117 164.635  40.901  0.00  0.00    -0.506 OA
ATOM     27  H   UNL     1      49.769 165.542  40.909  0.00  0.00    +0.292 HD
ENDBRANCH   6  26
BRANCH   2  28
ATOM     28  O   UNL     1      52.187 160.008  42.271  0.00  0.00    -0.501 OA
ATOM     29  H   UNL     1      52.757 160.807  42.228  0.00  0.00    +0.292 HD
ENDBRANCH   2  28
TORSDOF 7
ENDMDL
MODEL 6
REMARK VINA RESULT:    -8.308      1.797      7.186
REMARK INTER + INTRA:         -10.475
REMARK INTER:                 -10.576
REMARK INTRA:                   0.101
REMARK UNBOUND:                -0.224
REMARK  Name = 
REMARK  7 active torsions:
REMARK  status: ('A' for Active; 'I' for Inactive)
REMARK    1  A    between atoms: C_2  and  C_10
REMARK    2  A    between atoms: C_4  and  O_9
REMARK    3  A    between atoms: C_5  and  O_8
REMARK    4  A    between atoms: C_6  and  O_7
REMARK    5  A    between atoms: C_11  and  O_23
REMARK    6  A    between atoms: C_15  and  O_22
REMARK    7  A    between atoms: C_17  and  O_21
REMARK                            x       y       z     vdW  Elec       q    Type
REMARK                         _______ _______ _______ _____ _____    ______ ____
ROOT
ATOM      1  C   UNL     1      50.043 160.412  41.815  0.00  0.00    +0.181 A 
ATOM      2  C   UNL     1      51.369 160.470  42.029  0.00  0.00    +0.208 A 
ATOM      3  C   UNL     1      52.090 159.240  42.444  0.00  0.00    +0.238 A 
ATOM      4  O   UNL     1      53.295 159.331  42.652  0.00  0.00    -0.283 OA
ATOM      5  C   UNL     1      51.287 158.006  42.572  0.00  0.00    +0.109 A 
ATOM      6  C   UNL     1      51.835 156.768  42.928  0.00  0.00    +0.135 A 
ATOM      7  C   UNL     1      51.020 155.639  43.029  0.00  0.00    +0.091 A 
ATOM      8  C   UNL     1      49.657 155.749  42.774  0.00  0.00    +0.124 A 
ATOM      9  C   UNL     1      49.094 156.969  42.421  0.00  0.00    +0.092 A 
ATOM     10  C   UNL     1      49.914 158.096  42.321  0.00  0.00    +0.147 A 
ATOM     11  O   UNL     1      49.284 159.265  41.971  0.00  0.00    -0.451 OA
ENDROOT
BRANCH   1  13
ATOM     12  C   UNL     1      49.540 162.868  41.899  0.00  0.00    +0.061 A 
ATOM     13  C   UNL     1      49.245 161.584  41.409  0.00  0.00    +0.028 A 
ATOM     14  C   UNL     1      48.192 161.422  40.486  0.00  0.00    +0.061 A 
ATOM     15  C   UNL     1      47.451 162.528  40.079  0.00  0.00    +0.163 A 
ATOM     16  C   UNL     1      47.753 163.792  40.572  0.00  0.00    +0.201 A 
ATOM     17  C   UNL     1      48.792 163.959  41.476  0.00  0.00    +0.163 A 
BRANCH  17  18
ATOM     18  O   UNL     1      49.088 165.204  41.953  0.00  0.00    -0.503 OA
ATOM     19  H   UNL     1      50.058 165.281  41.856  0.00  0.00    +0.292 HD
ENDBRANCH  17  18
BRANCH  16  20
ATOM     20  O   UNL     1      47.032 164.886  40.174  0.00  0.00    -0.501 OA
ATOM     21  H   UNL     1      46.384 165.020  40.896  0.00  0.00    +0.292 HD
ENDBRANCH  16  20
BRANCH  15  22
ATOM     22  O   UNL     1      46.416 162.422  39.192  0.00  0.00    -0.503 OA
ATOM     23  H   UNL     1      45.703 161.915  39.616  0.00  0.00    +0.292 HD
ENDBRANCH  15  22
ENDBRANCH   1  13
BRANCH   8  24
ATOM     24  O   UNL     1      48.901 154.621  42.883  0.00  0.00    -0.507 OA
ATOM     25  H   UNL     1      49.165 153.989  42.193  0.00  0.00    +0.292 HD
ENDBRANCH   8  24
BRANCH   6  26
ATOM     26  O   UNL     1      53.171 156.640  43.180  0.00  0.00    -0.506 OA
ATOM     27  H   UNL     1      53.590 156.085  42.501  0.00  0.00    +0.292 HD
ENDBRANCH   6  26
BRANCH   2  28
ATOM     28  O   UNL     1      52.121 161.624  41.907  0.00  0.00    -0.501 OA
ATOM     29  H   UNL     1      51.716 162.105  41.152  0.00  0.00    +0.292 HD
ENDBRANCH   2  28
TORSDOF 7
ENDMDL
MODEL 7
REMARK VINA RESULT:    -8.246      1.940      6.723
REMARK INTER + INTRA:         -10.398
REMARK INTER:                 -10.224
REMARK INTRA:                  -0.173
REMARK UNBOUND:                -0.224
REMARK  Name = 
REMARK  7 active torsions:
REMARK  status: ('A' for Active; 'I' for Inactive)
REMARK    1  A    between atoms: C_2  and  C_10
REMARK    2  A    between atoms: C_4  and  O_9
REMARK    3  A    between atoms: C_5  and  O_8
REMARK    4  A    between atoms: C_6  and  O_7
REMARK    5  A    between atoms: C_11  and  O_23
REMARK    6  A    between atoms: C_15  and  O_22
REMARK    7  A    between atoms: C_17  and  O_21
REMARK                            x       y       z     vdW  Elec       q    Type
REMARK                         _______ _______ _______ _____ _____    ______ ____
ROOT
ATOM      1  C   UNL     1      49.192 160.406  41.931  0.00  0.00    +0.181 A 
ATOM      2  C   UNL     1      48.357 159.467  42.405  0.00  0.00    +0.208 A 
ATOM      3  C   UNL     1      48.913 158.170  42.868  0.00  0.00    +0.238 A 
ATOM      4  O   UNL     1      48.123 157.325  43.276  0.00  0.00    -0.283 OA
ATOM      5  C   UNL     1      50.381 158.010  42.797  0.00  0.00    +0.109 A 
ATOM      6  C   UNL     1      51.047 156.854  43.224  0.00  0.00    +0.135 A 
ATOM      7  C   UNL     1      52.438 156.768  43.130  0.00  0.00    +0.091 A 
ATOM      8  C   UNL     1      53.160 157.838  42.611  0.00  0.00    +0.124 A 
ATOM      9  C   UNL     1      52.517 158.991  42.181  0.00  0.00    +0.092 A 
ATOM     10  C   UNL     1      51.125 159.072  42.276  0.00  0.00    +0.147 A 
ATOM     11  O   UNL     1      50.563 160.243  41.829  0.00  0.00    -0.451 OA
ENDROOT
BRANCH   1  13
ATOM     12  C   UNL     1      47.812 161.815  40.379  0.00  0.00    +0.061 A 
ATOM     13  C   UNL     1      48.728 161.719  41.443  0.00  0.00    +0.028 A 
ATOM     14  C   UNL     1      49.179 162.895  42.074  0.00  0.00    +0.061 A 
ATOM     15  C   UNL     1      48.724 164.135  41.635  0.00  0.00    +0.163 A 
ATOM     16  C   UNL     1      47.820 164.217  40.582  0.00  0.00    +0.201 A 
ATOM     17  C   UNL     1      47.368 163.062  39.960  0.00  0.00    +0.163 A 
BRANCH  17  18
ATOM     18  O   UNL     1      46.476 163.147  38.930  0.00  0.00    -0.503 OA
ATOM     19  H   UNL     1      47.015 163.408  38.158  0.00  0.00    +0.292 HD
ENDBRANCH  17  18
BRANCH  16  20
ATOM     20  O   UNL     1      47.365 165.432  40.146  0.00  0.00    -0.501 OA
ATOM     21  H   UNL     1      46.996 165.243  39.259  0.00  0.00    +0.292 HD
ENDBRANCH  16  20
BRANCH  15  22
ATOM     22  O   UNL     1      49.137 165.305  42.209  0.00  0.00    -0.503 OA
ATOM     23  H   UNL     1      48.463 165.984  42.036  0.00  0.00    +0.292 HD
ENDBRANCH  15  22
ENDBRANCH   1  13
BRANCH   8  24
ATOM     24  O   UNL     1      54.515 157.709  42.541  0.00  0.00    -0.507 OA
ATOM     25  H   UNL     1      54.786 156.898  43.004  0.00  0.00    +0.292 HD
ENDBRANCH   8  24
BRANCH   6  26
ATOM     26  O   UNL     1      50.355 155.795  43.738  0.00  0.00    -0.506 OA
ATOM     27  H   UNL     1      50.013 156.014  44.620  0.00  0.00    +0.292 HD
ENDBRANCH   6  26
BRANCH   2  28
ATOM     28  O   UNL     1      46.983 159.617  42.475  0.00  0.00    -0.501 OA
ATOM     29  H   UNL     1      46.851 160.560  42.717  0.00  0.00    +0.292 HD
ENDBRANCH   2  28
TORSDOF 7
ENDMDL
MODEL 8
REMARK VINA RESULT:    -7.698      1.530      7.473
REMARK INTER + INTRA:          -9.721
REMARK INTER:                  -9.402
REMARK INTRA:                  -0.320
REMARK UNBOUND:                -0.224
REMARK  Name = 
REMARK  7 active torsions:
REMARK  status: ('A' for Active; 'I' for Inactive)
REMARK    1  A    between atoms: C_2  and  C_10
REMARK    2  A    between atoms: C_4  and  O_9
REMARK    3  A    between atoms: C_5  and  O_8
REMARK    4  A    between atoms: C_6  and  O_7
REMARK    5  A    between atoms: C_11  and  O_23
REMARK    6  A    between atoms: C_15  and  O_22
REMARK    7  A    between atoms: C_17  and  O_21
REMARK                            x       y       z     vdW  Elec       q    Type
REMARK                         _______ _______ _______ _____ _____    ______ ____
ROOT
ATOM      1  C   UNL     1      49.464 158.028  42.895  0.00  0.00    +0.181 A 
ATOM      2  C   UNL     1      49.928 157.026  42.129  0.00  0.00    +0.208 A 
ATOM      3  C   UNL     1      50.123 155.683  42.734  0.00  0.00    +0.238 A 
ATOM      4  O   UNL     1      50.568 154.795  42.013  0.00  0.00    -0.283 OA
ATOM      5  C   UNL     1      49.762 155.533  44.159  0.00  0.00    +0.109 A 
ATOM      6  C   UNL     1      49.867 154.322  44.853  0.00  0.00    +0.135 A 
ATOM      7  C   UNL     1      49.509 154.248  46.201  0.00  0.00    +0.091 A 
ATOM      8  C   UNL     1      49.044 155.387  46.852  0.00  0.00    +0.124 A 
ATOM      9  C   UNL     1      48.935 156.597  46.181  0.00  0.00    +0.092 A 
ATOM     10  C   UNL     1      49.296 156.666  44.832  0.00  0.00    +0.147 A 
ATOM     11  O   UNL     1      49.162 157.898  44.240  0.00  0.00    -0.451 OA
ENDROOT
BRANCH   1  13
ATOM     12  C   UNL     1      50.331 160.257  42.136  0.00  0.00    +0.061 A 
ATOM     13  C   UNL     1      49.248 159.394  42.383  0.00  0.00    +0.028 A 
ATOM     14  C   UNL     1      47.939 159.831  42.099  0.00  0.00    +0.061 A 
ATOM     15  C   UNL     1      47.729 161.110  41.591  0.00  0.00    +0.163 A 
ATOM     16  C   UNL     1      48.808 161.953  41.353  0.00  0.00    +0.201 A 
ATOM     17  C   UNL     1      50.100 161.527  41.624  0.00  0.00    +0.163 A 
BRANCH  17  18
ATOM     18  O   UNL     1      51.157 162.357  41.384  0.00  0.00    -0.503 OA
ATOM     19  H   UNL     1      51.947 161.802  41.541  0.00  0.00    +0.292 HD
ENDBRANCH  17  18
BRANCH  16  20
ATOM     20  O   UNL     1      48.612 163.211  40.850  0.00  0.00    -0.501 OA
ATOM     21  H   UNL     1      49.175 163.783  41.412  0.00  0.00    +0.292 HD
ENDBRANCH  16  20
BRANCH  15  22
ATOM     22  O   UNL     1      46.479 161.583  41.307  0.00  0.00    -0.503 OA
ATOM     23  H   UNL     1      45.833 160.890  41.530  0.00  0.00    +0.292 HD
ENDBRANCH  15  22
ENDBRANCH   1  13
BRANCH   8  24
ATOM     24  O   UNL     1      48.703 155.267  48.166  0.00  0.00    -0.507 OA
ATOM     25  H   UNL     1      48.566 156.152  48.544  0.00  0.00    +0.292 HD
ENDBRANCH   8  24
BRANCH   6  26
ATOM     26  O   UNL     1      50.319 153.194  44.230  0.00  0.00    -0.506 OA
ATOM     27  H   UNL     1      50.964 152.734  44.791  0.00  0.00    +0.292 HD
ENDBRANCH   6  26
BRANCH   2  28
ATOM     28  O   UNL     1      50.263 157.164  40.794  0.00  0.00    -0.501 OA
ATOM     29  H   UNL     1      49.535 156.716  40.310  0.00  0.00    +0.292 HD
ENDBRANCH   2  28
TORSDOF 7
ENDMDL
MODEL 9
REMARK VINA RESULT:    -7.608      1.544      6.984
REMARK INTER + INTRA:          -9.611
REMARK INTER:                 -10.019
REMARK INTRA:                   0.408
REMARK UNBOUND:                -0.224
REMARK  Name = 
REMARK  7 active torsions:
REMARK  status: ('A' for Active; 'I' for Inactive)
REMARK    1  A    between atoms: C_2  and  C_10
REMARK    2  A    between atoms: C_4  and  O_9
REMARK    3  A    between atoms: C_5  and  O_8
REMARK    4  A    between atoms: C_6  and  O_7
REMARK    5  A    between atoms: C_11  and  O_23
REMARK    6  A    between atoms: C_15  and  O_22
REMARK    7  A    between atoms: C_17  and  O_21
REMARK                            x       y       z     vdW  Elec       q    Type
REMARK                         _______ _______ _______ _____ _____    ______ ____
ROOT
ATOM      1  C   UNL     1      49.657 161.183  41.666  0.00  0.00    +0.181 A 
ATOM      2  C   UNL     1      48.437 160.656  41.867  0.00  0.00    +0.208 A 
ATOM      3  C   UNL     1      48.323 159.256  42.350  0.00  0.00    +0.238 A 
ATOM      4  O   UNL     1      47.195 158.798  42.504  0.00  0.00    -0.283 OA
ATOM      5  C   UNL     1      49.586 158.533  42.605  0.00  0.00    +0.109 A 
ATOM      6  C   UNL     1      49.634 157.219  43.088  0.00  0.00    +0.135 A 
ATOM      7  C   UNL     1      50.862 156.594  43.309  0.00  0.00    +0.091 A 
ATOM      8  C   UNL     1      52.042 157.283  43.048  0.00  0.00    +0.124 A 
ATOM      9  C   UNL     1      52.015 158.585  42.567  0.00  0.00    +0.092 A 
ATOM     10  C   UNL     1      50.783 159.207  42.347  0.00  0.00    +0.147 A 
ATOM     11  O   UNL     1      50.840 160.493  41.869  0.00  0.00    -0.451 OA
ENDROOT
BRANCH   1  13
ATOM     12  C   UNL     1      51.160 163.088  41.029  0.00  0.00    +0.061 A 
ATOM     13  C   UNL     1      49.865 162.560  41.180  0.00  0.00    +0.028 A 
ATOM     14  C   UNL     1      48.752 163.348  40.826  0.00  0.00    +0.061 A 
ATOM     15  C   UNL     1      48.943 164.640  40.342  0.00  0.00    +0.163 A 
ATOM     16  C   UNL     1      50.227 165.150  40.198  0.00  0.00    +0.201 A 
ATOM     17  C   UNL     1      51.328 164.377  40.540  0.00  0.00    +0.163 A 
BRANCH  17  18
ATOM     18  O   UNL     1      52.588 164.881  40.392  0.00  0.00    -0.503 OA
ATOM     19  H   UNL     1      52.503 165.554  39.687  0.00  0.00    +0.292 HD
ENDBRANCH  17  18
BRANCH  16  20
ATOM     20  O   UNL     1      50.425 166.417  39.720  0.00  0.00    -0.501 OA
ATOM     21  H   UNL     1      49.530 166.713  39.454  0.00  0.00    +0.292 HD
ENDBRANCH  16  20
BRANCH  15  22
ATOM     22  O   UNL     1      47.896 165.446  39.992  0.00  0.00    -0.503 OA
ATOM     23  H   UNL     1      47.636 165.230  39.080  0.00  0.00    +0.292 HD
ENDBRANCH  15  22
ENDBRANCH   1  13
BRANCH   8  24
ATOM     24  O   UNL     1      53.217 156.633  43.281  0.00  0.00    -0.507 OA
ATOM     25  H   UNL     1      53.490 156.164  42.474  0.00  0.00    +0.292 HD
ENDBRANCH   8  24
BRANCH   6  26
ATOM     26  O   UNL     1      48.486 156.528  43.353  0.00  0.00    -0.506 OA
ATOM     27  H   UNL     1      47.917 157.037  43.954  0.00  0.00    +0.292 HD
ENDBRANCH   6  26
BRANCH   2  28
ATOM     28  O   UNL     1      47.254 161.333  41.631  0.00  0.00    -0.501 OA
ATOM     29  H   UNL     1      46.616 160.946  42.270  0.00  0.00    +0.292 HD
ENDBRANCH   2  28
TORSDOF 7
ENDMDL
