MODEL 1
REMARK VINA RESULT:    -6.905      0.000      0.000
REMARK INTER + INTRA:          -7.970
REMARK INTER:                  -7.914
REMARK INTRA:                  -0.056
REMARK UNBOUND:                -0.056
REMARK  Name = 
REMARK  4 active torsions:
REMARK  status: ('A' for Active; 'I' for Inactive)
REMARK    1  A    between atoms: C_2  and  C_14
REMARK    2  A    between atoms: C_6  and  O_13
REMARK    3  A    between atoms: C_8  and  O_12
REMARK    4  A    between atoms: C_17  and  O_20
REMARK                            x       y       z     vdW  Elec       q    Type
REMARK                         _______ _______ _______ _____ _____    ______ ____
ROOT
ATOM      1  C   UNL     1      51.886 162.925  41.545  0.00  0.00    +0.129 C 
ATOM      2  C   UNL     1      50.553 163.291  42.189  0.00  0.00    +0.211 C 
ATOM      3  O   UNL     1      50.627 164.613  42.766  0.00  0.00    -0.483 OA
ATOM      4  C   UNL     1      51.042 165.586  41.895  0.00  0.00    +0.139 A 
ATOM      5  C   UNL     1      50.683 166.897  42.208  0.00  0.00    +0.092 A 
ATOM      6  C   UNL     1      51.059 167.935  41.359  0.00  0.00    +0.124 A 
ATOM      7  C   UNL     1      51.799 167.689  40.206  0.00  0.00    +0.091 A 
ATOM      8  C   UNL     1      52.175 166.381  39.908  0.00  0.00    +0.134 A 
ATOM      9  C   UNL     1      51.803 165.330  40.754  0.00  0.00    +0.101 A 
ATOM     10  C   UNL     1      52.229 163.944  40.497  0.00  0.00    +0.174 C 
ATOM     11  O   UNL     1      52.883 163.675  39.492  0.00  0.00    -0.292 OA
ENDROOT
BRANCH   2  12
ATOM     12  C   UNL     1      49.279 163.132  41.363  0.00  0.00    -0.007 A 
ATOM     13  C   UNL     1      48.907 161.842  40.939  0.00  0.00    +0.011 A 
ATOM     14  C   UNL     1      47.760 161.636  40.170  0.00  0.00    +0.046 A 
ATOM     15  C   UNL     1      46.973 162.720  39.811  0.00  0.00    +0.117 A 
ATOM     16  C   UNL     1      47.318 164.007  40.206  0.00  0.00    +0.046 A 
ATOM     17  C   UNL     1      48.469 164.212  40.975  0.00  0.00    +0.011 A 
BRANCH  15  18
ATOM     18  O   UNL     1      45.860 162.478  39.063  0.00  0.00    -0.507 OA
ATOM     19  H   UNL     1      45.122 162.276  39.660  0.00  0.00    +0.292 HD
ENDBRANCH  15  18
ENDBRANCH   2  12
BRANCH   8  20
ATOM     20  O   UNL     1      52.918 166.197  38.772  0.00  0.00    -0.506 OA
ATOM     21  H   UNL     1      53.826 165.930  39.043  0.00  0.00    +0.292 HD
ENDBRANCH   8  20
BRANCH   6  22
ATOM     22  O   UNL     1      50.677 169.200  41.698  0.00  0.00    -0.507 OA
ATOM     23  H   UNL     1      51.158 169.467  42.500  0.00  0.00    +0.292 HD
ENDBRANCH   6  22
TORSDOF 4
ENDMDL
MODEL 2
REMARK VINA RESULT:    -6.526      1.279      2.079
REMARK INTER + INTRA:          -7.535
REMARK INTER:                  -7.173
REMARK INTRA:                  -0.362
REMARK UNBOUND:                -0.056
REMARK  Name = 
REMARK  4 active torsions:
REMARK  status: ('A' for Active; 'I' for Inactive)
REMARK    1  A    between atoms: C_2  and  C_14
REMARK    2  A    between atoms: C_6  and  O_13
REMARK    3  A    between atoms: C_8  and  O_12
REMARK    4  A    between atoms: C_17  and  O_20
REMARK                            x       y       z     vdW  Elec       q    Type
REMARK                         _______ _______ _______ _____ _____    ______ ____
ROOT
ATOM      1  C   UNL     1      50.514 163.676  43.024  0.00  0.00    +0.129 C 
ATOM      2  C   UNL     1      49.361 164.506  42.471  0.00  0.00    +0.211 C 
ATOM      3  O   UNL     1      49.836 165.809  42.069  0.00  0.00    -0.483 OA
ATOM      4  C   UNL     1      50.891 165.780  41.195  0.00  0.00    +0.139 A 
ATOM      5  C   UNL     1      51.079 166.916  40.409  0.00  0.00    +0.092 A 
ATOM      6  C   UNL     1      52.125 166.951  39.489  0.00  0.00    +0.124 A 
ATOM      7  C   UNL     1      52.993 165.872  39.347  0.00  0.00    +0.091 A 
ATOM      8  C   UNL     1      52.814 164.748  40.149  0.00  0.00    +0.134 A 
ATOM      9  C   UNL     1      51.768 164.702  41.078  0.00  0.00    +0.101 A 
ATOM     10  C   UNL     1      51.585 163.552  41.978  0.00  0.00    +0.174 C 
ATOM     11  O   UNL     1      52.325 162.575  41.893  0.00  0.00    -0.292 OA
ENDROOT
BRANCH   2  12
ATOM     12  C   UNL     1      48.479 163.893  41.386  0.00  0.00    -0.007 A 
ATOM     13  C   UNL     1      47.496 164.699  40.780  0.00  0.00    +0.011 A 
ATOM     14  C   UNL     1      46.652 164.189  39.792  0.00  0.00    +0.046 A 
ATOM     15  C   UNL     1      46.776 162.864  39.401  0.00  0.00    +0.117 A 
ATOM     16  C   UNL     1      47.730 162.040  39.987  0.00  0.00    +0.046 A 
ATOM     17  C   UNL     1      48.574 162.552  40.979  0.00  0.00    +0.011 A 
BRANCH  15  18
ATOM     18  O   UNL     1      45.936 162.405  38.432  0.00  0.00    -0.507 OA
ATOM     19  H   UNL     1      46.184 162.814  37.587  0.00  0.00    +0.292 HD
ENDBRANCH  15  18
ENDBRANCH   2  12
BRANCH   8  20
ATOM     20  O   UNL     1      53.709 163.724  39.983  0.00  0.00    -0.506 OA
ATOM     21  H   UNL     1      54.515 164.090  39.553  0.00  0.00    +0.292 HD
ENDBRANCH   8  20
BRANCH   6  22
ATOM     22  O   UNL     1      52.265 168.077  38.733  0.00  0.00    -0.507 OA
ATOM     23  H   UNL     1      52.627 167.829  37.866  0.00  0.00    +0.292 HD
ENDBRANCH   6  22
TORSDOF 4
ENDMDL
MODEL 3
REMARK VINA RESULT:    -6.409      1.942      5.455
REMARK INTER + INTRA:          -7.401
REMARK INTER:                  -7.046
REMARK INTRA:                  -0.354
REMARK UNBOUND:                -0.056
REMARK  Name = 
REMARK  4 active torsions:
REMARK  status: ('A' for Active; 'I' for Inactive)
REMARK    1  A    between atoms: C_2  and  C_14
REMARK    2  A    between atoms: C_6  and  O_13
REMARK    3  A    between atoms: C_8  and  O_12
REMARK    4  A    between atoms: C_17  and  O_20
REMARK                            x       y       z     vdW  Elec       q    Type
REMARK                         _______ _______ _______ _____ _____    ______ ____
ROOT
ATOM      1  C   UNL     1      51.696 164.951  40.220  0.00  0.00    +0.129 C 
ATOM      2  C   UNL     1      50.472 165.846  40.384  0.00  0.00    +0.211 C 
ATOM      3  O   UNL     1      49.292 165.165  39.906  0.00  0.00    -0.483 OA
ATOM      4  C   UNL     1      49.085 163.933  40.468  0.00  0.00    +0.139 A 
ATOM      5  C   UNL     1      47.778 163.448  40.441  0.00  0.00    +0.092 A 
ATOM      6  C   UNL     1      47.492 162.207  41.007  0.00  0.00    +0.124 A 
ATOM      7  C   UNL     1      48.493 161.437  41.591  0.00  0.00    +0.091 A 
ATOM      8  C   UNL     1      49.801 161.915  41.597  0.00  0.00    +0.134 A 
ATOM      9  C   UNL     1      50.100 163.160  41.031  0.00  0.00    +0.101 A 
ATOM     10  C   UNL     1      51.479 163.670  40.972  0.00  0.00    +0.174 C 
ATOM     11  O   UNL     1      52.399 163.027  41.475  0.00  0.00    -0.292 OA
ENDROOT
BRANCH   2  12
ATOM     12  C   UNL     1      50.215 166.483  41.747  0.00  0.00    -0.007 A 
ATOM     13  C   UNL     1      49.047 167.250  41.925  0.00  0.00    +0.011 A 
ATOM     14  C   UNL     1      48.766 167.866  43.145  0.00  0.00    +0.046 A 
ATOM     15  C   UNL     1      49.653 167.728  44.203  0.00  0.00    +0.117 A 
ATOM     16  C   UNL     1      50.818 166.986  44.057  0.00  0.00    +0.046 A 
ATOM     17  C   UNL     1      51.101 166.370  42.832  0.00  0.00    +0.011 A 
BRANCH  15  18
ATOM     18  O   UNL     1      49.342 168.343  45.378  0.00  0.00    -0.507 OA
ATOM     19  H   UNL     1      48.451 168.065  45.648  0.00  0.00    +0.292 HD
ENDBRANCH  15  18
ENDBRANCH   2  12
BRANCH   8  20
ATOM     20  O   UNL     1      50.749 161.108  42.167  0.00  0.00    -0.506 OA
ATOM     21  H   UNL     1      51.166 161.605  42.908  0.00  0.00    +0.292 HD
ENDBRANCH   8  20
BRANCH   6  22
ATOM     22  O   UNL     1      46.198 161.777  40.967  0.00  0.00    -0.507 OA
ATOM     23  H   UNL     1      45.986 161.348  41.813  0.00  0.00    +0.292 HD
ENDBRANCH   6  22
TORSDOF 4
ENDMDL
MODEL 4
REMARK VINA RESULT:    -6.271      2.119      3.658
REMARK INTER + INTRA:          -7.243
REMARK INTER:                  -7.116
REMARK INTRA:                  -0.127
REMARK UNBOUND:                -0.056
REMARK  Name = 
REMARK  4 active torsions:
REMARK  status: ('A' for Active; 'I' for Inactive)
REMARK    1  A    between atoms: C_2  and  C_14
REMARK    2  A    between atoms: C_6  and  O_13
REMARK    3  A    between atoms: C_8  and  O_12
REMARK    4  A    between atoms: C_17  and  O_20
REMARK                            x       y       z     vdW  Elec       q    Type
REMARK                         _______ _______ _______ _____ _____    ______ ____
ROOT
ATOM      1  C   UNL     1      48.561 166.155  41.514  0.00  0.00    +0.129 C 
ATOM      2  C   UNL     1      48.671 165.005  40.518  0.00  0.00    +0.211 C 
ATOM      3  O   UNL     1      49.919 165.092  39.796  0.00  0.00    -0.483 OA
ATOM      4  C   UNL     1      51.029 165.165  40.595  0.00  0.00    +0.139 A 
ATOM      5  C   UNL     1      52.237 164.767  40.021  0.00  0.00    +0.092 A 
ATOM      6  C   UNL     1      53.404 164.802  40.781  0.00  0.00    +0.124 A 
ATOM      7  C   UNL     1      53.389 165.238  42.103  0.00  0.00    +0.091 A 
ATOM      8  C   UNL     1      52.185 165.654  42.665  0.00  0.00    +0.134 A 
ATOM      9  C   UNL     1      51.006 165.624  41.912  0.00  0.00    +0.101 A 
ATOM     10  C   UNL     1      49.728 166.108  42.459  0.00  0.00    +0.174 C 
ATOM     11  O   UNL     1      49.661 166.502  43.621  0.00  0.00    -0.292 OA
ENDROOT
BRANCH   2  12
ATOM     12  C   UNL     1      48.434 163.583  41.022  0.00  0.00    -0.007 A 
ATOM     13  C   UNL     1      47.201 163.279  41.630  0.00  0.00    +0.011 A 
ATOM     14  C   UNL     1      46.933 162.001  42.120  0.00  0.00    +0.046 A 
ATOM     15  C   UNL     1      47.898 161.009  42.014  0.00  0.00    +0.117 A 
ATOM     16  C   UNL     1      49.129 161.280  41.428  0.00  0.00    +0.046 A 
ATOM     17  C   UNL     1      49.397 162.563  40.938  0.00  0.00    +0.011 A 
BRANCH  15  18
ATOM     18  O   UNL     1      47.598 159.774  42.503  0.00  0.00    -0.507 OA
ATOM     19  H   UNL     1      48.282 159.518  43.143  0.00  0.00    +0.292 HD
ENDBRANCH  15  18
ENDBRANCH   2  12
BRANCH   8  20
ATOM     20  O   UNL     1      52.230 166.091  43.963  0.00  0.00    -0.506 OA
ATOM     21  H   UNL     1      52.149 165.307  44.551  0.00  0.00    +0.292 HD
ENDBRANCH   8  20
BRANCH   6  22
ATOM     22  O   UNL     1      54.560 164.395  40.183  0.00  0.00    -0.507 OA
ATOM     23  H   UNL     1      54.438 163.489  39.850  0.00  0.00    +0.292 HD
ENDBRANCH   6  22
TORSDOF 4
ENDMDL
MODEL 5
REMARK VINA RESULT:    -6.168      2.358      4.291
REMARK INTER + INTRA:          -7.125
REMARK INTER:                  -6.745
REMARK INTRA:                  -0.379
REMARK UNBOUND:                -0.056
REMARK  Name = 
REMARK  4 active torsions:
REMARK  status: ('A' for Active; 'I' for Inactive)
REMARK    1  A    between atoms: C_2  and  C_14
REMARK    2  A    between atoms: C_6  and  O_13
REMARK    3  A    between atoms: C_8  and  O_12
REMARK    4  A    between atoms: C_17  and  O_20
REMARK                            x       y       z     vdW  Elec       q    Type
REMARK                         _______ _______ _______ _____ _____    ______ ____
ROOT
ATOM      1  C   UNL     1      49.609 167.341  41.395  0.00  0.00    +0.129 C 
ATOM      2  C   UNL     1      50.053 165.921  41.064  0.00  0.00    +0.211 C 
ATOM      3  O   UNL     1      51.176 165.547  41.890  0.00  0.00    -0.483 OA
ATOM      4  C   UNL     1      50.963 165.700  43.235  0.00  0.00    +0.139 A 
ATOM      5  C   UNL     1      51.764 164.936  44.084  0.00  0.00    +0.092 A 
ATOM      6  C   UNL     1      51.592 165.031  45.463  0.00  0.00    +0.124 A 
ATOM      7  C   UNL     1      50.640 165.885  46.011  0.00  0.00    +0.091 A 
ATOM      8  C   UNL     1      49.857 166.663  45.161  0.00  0.00    +0.134 A 
ATOM      9  C   UNL     1      50.022 166.577  43.774  0.00  0.00    +0.101 A 
ATOM     10  C   UNL     1      49.249 167.424  42.851  0.00  0.00    +0.174 C 
ATOM     11  O   UNL     1      48.396 168.194  43.285  0.00  0.00    -0.292 OA
ENDROOT
BRANCH   2  12
ATOM     12  C   UNL     1      49.000 164.815  41.049  0.00  0.00    -0.007 A 
ATOM     13  C   UNL     1      49.429 163.475  41.109  0.00  0.00    +0.011 A 
ATOM     14  C   UNL     1      48.513 162.422  41.086  0.00  0.00    +0.046 A 
ATOM     15  C   UNL     1      47.156 162.696  40.996  0.00  0.00    +0.117 A 
ATOM     16  C   UNL     1      46.702 164.007  40.925  0.00  0.00    +0.046 A 
ATOM     17  C   UNL     1      47.621 165.062  40.947  0.00  0.00    +0.011 A 
BRANCH  15  18
ATOM     18  O   UNL     1      46.294 161.641  40.979  0.00  0.00    -0.507 OA
ATOM     19  H   UNL     1      46.571 161.002  41.656  0.00  0.00    +0.292 HD
ENDBRANCH  15  18
ENDBRANCH   2  12
BRANCH   8  20
ATOM     20  O   UNL     1      48.950 167.501  45.754  0.00  0.00    -0.506 OA
ATOM     21  H   UNL     1      48.943 167.308  46.719  0.00  0.00    +0.292 HD
ENDBRANCH   8  20
BRANCH   6  22
ATOM     22  O   UNL     1      52.389 164.257  46.254  0.00  0.00    -0.507 OA
ATOM     23  H   UNL     1      52.629 164.765  47.048  0.00  0.00    +0.292 HD
ENDBRANCH   6  22
TORSDOF 4
ENDMDL
MODEL 6
REMARK VINA RESULT:    -6.147      6.808      9.265
REMARK INTER + INTRA:          -7.101
REMARK INTER:                  -6.741
REMARK INTRA:                  -0.360
REMARK UNBOUND:                -0.056
REMARK  Name = 
REMARK  4 active torsions:
REMARK  status: ('A' for Active; 'I' for Inactive)
REMARK    1  A    between atoms: C_2  and  C_14
REMARK    2  A    between atoms: C_6  and  O_13
REMARK    3  A    between atoms: C_8  and  O_12
REMARK    4  A    between atoms: C_17  and  O_20
REMARK                            x       y       z     vdW  Elec       q    Type
REMARK                         _______ _______ _______ _____ _____    ______ ____
ROOT
ATOM      1  C   UNL     1      58.777 160.061  42.848  0.00  0.00    +0.129 C 
ATOM      2  C   UNL     1      57.919 161.150  42.215  0.00  0.00    +0.211 C 
ATOM      3  O   UNL     1      58.390 161.442  40.882  0.00  0.00    -0.483 OA
ATOM      4  C   UNL     1      58.485 160.346  40.065  0.00  0.00    +0.139 A 
ATOM      5  C   UNL     1      58.453 160.588  38.692  0.00  0.00    +0.092 A 
ATOM      6  C   UNL     1      58.530 159.519  37.802  0.00  0.00    +0.124 A 
ATOM      7  C   UNL     1      58.649 158.210  38.260  0.00  0.00    +0.091 A 
ATOM      8  C   UNL     1      58.703 157.974  39.632  0.00  0.00    +0.134 A 
ATOM      9  C   UNL     1      58.627 159.040  40.535  0.00  0.00    +0.101 A 
ATOM     10  C   UNL     1      58.735 158.830  41.988  0.00  0.00    +0.174 C 
ATOM     11  O   UNL     1      58.841 157.694  42.443  0.00  0.00    -0.292 OA
ENDROOT
BRANCH   2  12
ATOM     12  C   UNL     1      56.401 160.978  42.227  0.00  0.00    -0.007 A 
ATOM     13  C   UNL     1      55.819 160.193  43.241  0.00  0.00    +0.011 A 
ATOM     14  C   UNL     1      54.440 159.990  43.295  0.00  0.00    +0.046 A 
ATOM     15  C   UNL     1      53.624 160.565  42.332  0.00  0.00    +0.117 A 
ATOM     16  C   UNL     1      54.169 161.337  41.313  0.00  0.00    +0.046 A 
ATOM     17  C   UNL     1      55.553 161.539  41.258  0.00  0.00    +0.011 A 
BRANCH  15  18
ATOM     18  O   UNL     1      52.282 160.345  42.420  0.00  0.00    -0.507 OA
ATOM     19  H   UNL     1      52.094 159.916  43.271  0.00  0.00    +0.292 HD
ENDBRANCH  15  18
ENDBRANCH   2  12
BRANCH   8  20
ATOM     20  O   UNL     1      58.840 156.670  40.028  0.00  0.00    -0.506 OA
ATOM     21  H   UNL     1      58.321 156.108  39.409  0.00  0.00    +0.292 HD
ENDBRANCH   8  20
BRANCH   6  22
ATOM     22  O   UNL     1      58.484 159.801  36.469  0.00  0.00    -0.507 OA
ATOM     23  H   UNL     1      59.348 159.591  36.074  0.00  0.00    +0.292 HD
ENDBRANCH   6  22
TORSDOF 4
ENDMDL
MODEL 7
REMARK VINA RESULT:    -6.104      1.774      5.842
REMARK INTER + INTRA:          -7.052
REMARK INTER:                  -6.794
REMARK INTRA:                  -0.258
REMARK UNBOUND:                -0.056
REMARK  Name = 
REMARK  4 active torsions:
REMARK  status: ('A' for Active; 'I' for Inactive)
REMARK    1  A    between atoms: C_2  and  C_14
REMARK    2  A    between atoms: C_6  and  O_13
REMARK    3  A    between atoms: C_8  and  O_12
REMARK    4  A    between atoms: C_17  and  O_20
REMARK                            x       y       z     vdW  Elec       q    Type
REMARK                         _______ _______ _______ _____ _____    ______ ____
ROOT
ATOM      1  C   UNL     1      47.936 165.726  41.260  0.00  0.00    +0.129 C 
ATOM      2  C   UNL     1      49.193 165.637  42.119  0.00  0.00    +0.211 C 
ATOM      3  O   UNL     1      49.088 164.528  43.037  0.00  0.00    -0.483 OA
ATOM      4  C   UNL     1      48.808 163.326  42.441  0.00  0.00    +0.139 A 
ATOM      5  C   UNL     1      49.165 162.180  43.151  0.00  0.00    +0.092 A 
ATOM      6  C   UNL     1      48.922 160.925  42.598  0.00  0.00    +0.124 A 
ATOM      7  C   UNL     1      48.318 160.793  41.351  0.00  0.00    +0.091 A 
ATOM      8  C   UNL     1      47.944 161.940  40.655  0.00  0.00    +0.134 A 
ATOM      9  C   UNL     1      48.182 163.206  41.200  0.00  0.00    +0.101 A 
ATOM     10  C   UNL     1      47.750 164.435  40.515  0.00  0.00    +0.174 C 
ATOM     11  O   UNL     1      47.212 164.373  39.411  0.00  0.00    -0.292 OA
ENDROOT
BRANCH   2  12
ATOM     12  C   UNL     1      50.551 165.637  41.422  0.00  0.00    -0.007 A 
ATOM     13  C   UNL     1      50.795 166.595  40.419  0.00  0.00    +0.011 A 
ATOM     14  C   UNL     1      52.013 166.634  39.738  0.00  0.00    +0.046 A 
ATOM     15  C   UNL     1      53.001 165.712  40.048  0.00  0.00    +0.117 A 
ATOM     16  C   UNL     1      52.788 164.748  41.026  0.00  0.00    +0.046 A 
ATOM     17  C   UNL     1      51.566 164.708  41.707  0.00  0.00    +0.011 A 
BRANCH  15  18
ATOM     18  O   UNL     1      54.177 165.785  39.364  0.00  0.00    -0.507 OA
ATOM     19  H   UNL     1      54.823 166.264  39.906  0.00  0.00    +0.292 HD
ENDBRANCH  15  18
ENDBRANCH   2  12
BRANCH   8  20
ATOM     20  O   UNL     1      47.336 161.752  39.441  0.00  0.00    -0.506 OA
ATOM     21  H   UNL     1      46.462 162.203  39.466  0.00  0.00    +0.292 HD
ENDBRANCH   8  20
BRANCH   6  22
ATOM     22  O   UNL     1      49.297 159.832  43.323  0.00  0.00    -0.507 OA
ATOM     23  H   UNL     1      48.500 159.410  43.687  0.00  0.00    +0.292 HD
ENDBRANCH   6  22
TORSDOF 4
ENDMDL
MODEL 8
REMARK VINA RESULT:    -5.991      3.966      6.012
REMARK INTER + INTRA:          -6.923
REMARK INTER:                  -6.623
REMARK INTRA:                  -0.299
REMARK UNBOUND:                -0.056
REMARK  Name = 
REMARK  4 active torsions:
REMARK  status: ('A' for Active; 'I' for Inactive)
REMARK    1  A    between atoms: C_2  and  C_14
REMARK    2  A    between atoms: C_6  and  O_13
REMARK    3  A    between atoms: C_8  and  O_12
REMARK    4  A    between atoms: C_17  and  O_20
REMARK                            x       y       z     vdW  Elec       q    Type
REMARK                         _______ _______ _______ _____ _____    ______ ____
ROOT
ATOM      1  C   UNL     1      49.944 169.282  42.917  0.00  0.00    +0.129 C 
ATOM      2  C   UNL     1      50.251 167.883  43.439  0.00  0.00    +0.211 C 
ATOM      3  O   UNL     1      50.027 167.826  44.864  0.00  0.00    -0.483 OA
ATOM      4  C   UNL     1      48.782 168.241  45.258  0.00  0.00    +0.139 A 
ATOM      5  C   UNL     1      48.331 167.772  46.492  0.00  0.00    +0.092 A 
ATOM      6  C   UNL     1      47.068 168.143  46.948  0.00  0.00    +0.124 A 
ATOM      7  C   UNL     1      46.251 168.983  46.198  0.00  0.00    +0.091 A 
ATOM      8  C   UNL     1      46.714 169.466  44.976  0.00  0.00    +0.134 A 
ATOM      9  C   UNL     1      47.981 169.101  44.508  0.00  0.00    +0.101 A 
ATOM     10  C   UNL     1      48.522 169.637  43.248  0.00  0.00    +0.174 C 
ATOM     11  O   UNL     1      47.839 170.382  42.548  0.00  0.00    -0.292 OA
ENDROOT
BRANCH   2  12
ATOM     12  C   UNL     1      49.604 166.689  42.741  0.00  0.00    -0.007 A 
ATOM     13  C   UNL     1      49.961 165.391  43.154  0.00  0.00    +0.011 A 
ATOM     14  C   UNL     1      49.412 164.262  42.545  0.00  0.00    +0.046 A 
ATOM     15  C   UNL     1      48.503 164.417  41.509  0.00  0.00    +0.117 A 
ATOM     16  C   UNL     1      48.137 165.684  41.071  0.00  0.00    +0.046 A 
ATOM     17  C   UNL     1      48.689 166.815  41.682  0.00  0.00    +0.011 A 
BRANCH  15  18
ATOM     18  O   UNL     1      47.988 163.290  40.941  0.00  0.00    -0.507 OA
ATOM     19  H   UNL     1      48.592 162.991  40.242  0.00  0.00    +0.292 HD
ENDBRANCH  15  18
ENDBRANCH   2  12
BRANCH   8  20
ATOM     20  O   UNL     1      45.877 170.304  44.288  0.00  0.00    -0.506 OA
ATOM     21  H   UNL     1      45.657 171.064  44.874  0.00  0.00    +0.292 HD
ENDBRANCH   8  20
BRANCH   6  22
ATOM     22  O   UNL     1      46.663 167.653  48.155  0.00  0.00    -0.507 OA
ATOM     23  H   UNL     1      47.216 166.888  48.384  0.00  0.00    +0.292 HD
ENDBRANCH   6  22
TORSDOF 4
ENDMDL
MODEL 9
REMARK VINA RESULT:    -5.925      2.539      5.839
REMARK INTER + INTRA:          -6.846
REMARK INTER:                  -6.612
REMARK INTRA:                  -0.234
REMARK UNBOUND:                -0.056
REMARK  Name = 
REMARK  4 active torsions:
REMARK  status: ('A' for Active; 'I' for Inactive)
REMARK    1  A    between atoms: C_2  and  C_14
REMARK    2  A    between atoms: C_6  and  O_13
REMARK    3  A    between atoms: C_8  and  O_12
REMARK    4  A    between atoms: C_17  and  O_20
REMARK                            x       y       z     vdW  Elec       q    Type
REMARK                         _______ _______ _______ _____ _____    ______ ____
ROOT
ATOM      1  C   UNL     1      51.722 166.616  43.417  0.00  0.00    +0.129 C 
ATOM      2  C   UNL     1      51.040 167.559  42.433  0.00  0.00    +0.211 C 
ATOM      3  O   UNL     1      50.712 166.854  41.216  0.00  0.00    -0.483 OA
ATOM      4  C   UNL     1      49.974 165.715  41.405  0.00  0.00    +0.139 A 
ATOM      5  C   UNL     1      49.228 165.268  40.315  0.00  0.00    +0.092 A 
ATOM      6  C   UNL     1      48.444 164.124  40.441  0.00  0.00    +0.124 A 
ATOM      7  C   UNL     1      48.399 163.410  41.635  0.00  0.00    +0.091 A 
ATOM      8  C   UNL     1      49.163 163.848  42.715  0.00  0.00    +0.134 A 
ATOM      9  C   UNL     1      49.955 164.996  42.600  0.00  0.00    +0.101 A 
ATOM     10  C   UNL     1      50.815 165.454  43.704  0.00  0.00    +0.174 C 
ATOM     11  O   UNL     1      50.811 164.858  44.779  0.00  0.00    -0.292 OA
ENDROOT
BRANCH   2  12
ATOM     12  C   UNL     1      49.848 168.381  42.921  0.00  0.00    -0.007 A 
ATOM     13  C   UNL     1      49.358 169.412  42.097  0.00  0.00    +0.011 A 
ATOM     14  C   UNL     1      48.281 170.204  42.496  0.00  0.00    +0.046 A 
ATOM     15  C   UNL     1      47.682 169.978  43.727  0.00  0.00    +0.117 A 
ATOM     16  C   UNL     1      48.149 168.975  44.567  0.00  0.00    +0.046 A 
ATOM     17  C   UNL     1      49.231 168.182  44.167  0.00  0.00    +0.011 A 
BRANCH  15  18
ATOM     18  O   UNL     1      46.631 170.771  44.079  0.00  0.00    -0.507 OA
ATOM     19  H   UNL     1      46.748 171.049  45.002  0.00  0.00    +0.292 HD
ENDBRANCH  15  18
ENDBRANCH   2  12
BRANCH   8  20
ATOM     20  O   UNL     1      49.097 163.098  43.859  0.00  0.00    -0.506 OA
ATOM     21  H   UNL     1      48.263 163.329  44.327  0.00  0.00    +0.292 HD
ENDBRANCH   8  20
BRANCH   6  22
ATOM     22  O   UNL     1      47.722 163.729  39.353  0.00  0.00    -0.507 OA
ATOM     23  H   UNL     1      48.169 162.970  38.940  0.00  0.00    +0.292 HD
ENDBRANCH   6  22
TORSDOF 4
ENDMDL
