MODEL 1
REMARK VINA RESULT:    -6.755      0.000      0.000
REMARK INTER + INTRA:          -8.068
REMARK INTER:                  -7.940
REMARK INTRA:                  -0.128
REMARK UNBOUND:                -0.128
REMARK  Name = 
REMARK  5 active torsions:
REMARK  status: ('A' for Active; 'I' for Inactive)
REMARK    1  A    between atoms: C_1  and  C_2
REMARK    2  A    between atoms: C_5  and  O_6
REMARK    3  A    between atoms: O_6  and  C_7
REMARK    4  A    between atoms: C_8  and  C_9
REMARK    5  A    between atoms: C_9  and  N_10
REMARK                            x       y       z     vdW  Elec       q    Type
REMARK                         _______ _______ _______ _____ _____    ______ ____
ROOT
ATOM      1  C   UNL     1      47.716 161.715  40.566  0.00  0.00    +0.044 C 
ATOM      2  C   UNL     1      48.873 160.953  41.142  0.00  0.00    -0.050 A 
ATOM      3  C   UNL     1      50.056 161.611  41.486  0.00  0.00    +0.007 A 
ATOM      4  C   UNL     1      51.145 160.896  41.994  0.00  0.00    +0.046 A 
ATOM      5  C   UNL     1      51.076 159.508  42.150  0.00  0.00    +0.124 A 
ATOM      6  C   UNL     1      49.896 158.830  41.798  0.00  0.00    +0.008 A 
ATOM      7  C   UNL     1      48.806 159.563  41.291  0.00  0.00    +0.012 A 
ENDROOT
BRANCH   5   8
ATOM      8  O   UNL     1      52.089 158.740  42.663  0.00  0.00    -0.495 OA
ATOM      9  C   UNL     1      53.393 159.305  42.661  0.00  0.00    +0.277 C 
ENDBRANCH   5   8
BRANCH   6  10
ATOM     10  C   UNL     1      49.776 157.323  41.931  0.00  0.00    +0.123 C 
BRANCH  10  11
ATOM     11  N   UNL     1      49.682 156.856  43.324  0.00  0.00    -0.296 NA
ATOM     12  C   UNL     1      49.757 155.385  43.439  0.00  0.00    +0.100 C 
ATOM     13  C   UNL     1      49.301 154.845  44.820  0.00  0.00    +0.096 C 
ATOM     14  N   UNL     1      49.296 155.881  45.867  0.00  0.00    -0.314 NA
ATOM     15  C   UNL     1      48.364 156.953  45.460  0.00  0.00    +0.096 C 
ATOM     16  C   UNL     1      48.451 157.350  43.963  0.00  0.00    +0.100 C 
ATOM     17  H   UNL     1      50.228 156.305  45.834  0.00  0.00    +0.122 HD
ENDBRANCH  10  11
ENDBRANCH   6  10
TORSDOF 3
ENDMDL
MODEL 2
REMARK VINA RESULT:    -6.405      1.617      2.515
REMARK INTER + INTRA:          -7.657
REMARK INTER:                  -7.389
REMARK INTRA:                  -0.268
REMARK UNBOUND:                -0.128
REMARK  Name = 
REMARK  5 active torsions:
REMARK  status: ('A' for Active; 'I' for Inactive)
REMARK    1  A    between atoms: C_1  and  C_2
REMARK    2  A    between atoms: C_5  and  O_6
REMARK    3  A    between atoms: O_6  and  C_7
REMARK    4  A    between atoms: C_8  and  C_9
REMARK    5  A    between atoms: C_9  and  N_10
REMARK                            x       y       z     vdW  Elec       q    Type
REMARK                         _______ _______ _______ _____ _____    ______ ____
ROOT
ATOM      1  C   UNL     1      46.681 161.966  40.906  0.00  0.00    +0.044 C 
ATOM      2  C   UNL     1      48.160 161.986  41.159  0.00  0.00    -0.050 A 
ATOM      3  C   UNL     1      48.901 163.149  40.942  0.00  0.00    +0.007 A 
ATOM      4  C   UNL     1      50.284 163.158  41.149  0.00  0.00    +0.046 A 
ATOM      5  C   UNL     1      50.952 162.000  41.559  0.00  0.00    +0.124 A 
ATOM      6  C   UNL     1      50.219 160.818  41.772  0.00  0.00    +0.008 A 
ATOM      7  C   UNL     1      48.827 160.825  41.563  0.00  0.00    +0.012 A 
ENDROOT
BRANCH   5   8
ATOM      8  O   UNL     1      52.298 161.934  41.808  0.00  0.00    -0.495 OA
ATOM      9  C   UNL     1      53.151 162.679  40.948  0.00  0.00    +0.277 C 
ENDBRANCH   5   8
BRANCH   6  10
ATOM     10  C   UNL     1      50.898 159.530  42.201  0.00  0.00    +0.123 C 
BRANCH  10  11
ATOM     11  N   UNL     1      49.959 158.460  42.575  0.00  0.00    -0.296 NA
ATOM     12  C   UNL     1      49.726 158.388  44.031  0.00  0.00    +0.100 C 
ATOM     13  C   UNL     1      49.048 157.070  44.488  0.00  0.00    +0.096 C 
ATOM     14  N   UNL     1      48.389 156.352  43.384  0.00  0.00    -0.314 NA
ATOM     15  C   UNL     1      49.409 156.018  42.368  0.00  0.00    +0.096 C 
ATOM     16  C   UNL     1      50.420 157.155  42.072  0.00  0.00    +0.100 C 
ATOM     17  H   UNL     1      47.777 157.043  42.938  0.00  0.00    +0.122 HD
ENDBRANCH  10  11
ENDBRANCH   6  10
TORSDOF 3
ENDMDL
MODEL 3
REMARK VINA RESULT:    -6.292      4.740      7.751
REMARK INTER + INTRA:          -7.524
REMARK INTER:                  -7.302
REMARK INTRA:                  -0.221
REMARK UNBOUND:                -0.128
REMARK  Name = 
REMARK  5 active torsions:
REMARK  status: ('A' for Active; 'I' for Inactive)
REMARK    1  A    between atoms: C_1  and  C_2
REMARK    2  A    between atoms: C_5  and  O_6
REMARK    3  A    between atoms: O_6  and  C_7
REMARK    4  A    between atoms: C_8  and  C_9
REMARK    5  A    between atoms: C_9  and  N_10
REMARK                            x       y       z     vdW  Elec       q    Type
REMARK                         _______ _______ _______ _____ _____    ______ ____
ROOT
ATOM      1  C   UNL     1      49.532 159.136  41.723  0.00  0.00    +0.044 C 
ATOM      2  C   UNL     1      49.209 160.553  41.351  0.00  0.00    -0.050 A 
ATOM      3  C   UNL     1      48.086 160.843  40.572  0.00  0.00    +0.007 A 
ATOM      4  C   UNL     1      47.802 162.161  40.199  0.00  0.00    +0.046 A 
ATOM      5  C   UNL     1      48.645 163.208  40.585  0.00  0.00    +0.124 A 
ATOM      6  C   UNL     1      49.784 162.930  41.361  0.00  0.00    +0.008 A 
ATOM      7  C   UNL     1      50.056 161.599  41.732  0.00  0.00    +0.012 A 
ENDROOT
BRANCH   5   8
ATOM      8  O   UNL     1      48.422 164.527  40.282  0.00  0.00    -0.495 OA
ATOM      9  C   UNL     1      47.283 165.141  40.870  0.00  0.00    +0.277 C 
ENDBRANCH   5   8
BRANCH   6  10
ATOM     10  C   UNL     1      50.739 164.029  41.791  0.00  0.00    +0.123 C 
BRANCH  10  11
ATOM     11  N   UNL     1      51.494 164.628  40.678  0.00  0.00    -0.296 NA
ATOM     12  C   UNL     1      52.728 163.883  40.360  0.00  0.00    +0.100 C 
ATOM     13  C   UNL     1      53.716 164.672  39.461  0.00  0.00    +0.096 C 
ATOM     14  N   UNL     1      53.078 165.798  38.759  0.00  0.00    -0.314 NA
ATOM     15  C   UNL     1      52.528 166.727  39.767  0.00  0.00    +0.096 C 
ATOM     16  C   UNL     1      51.813 166.038  40.958  0.00  0.00    +0.100 C 
ATOM     17  H   UNL     1      52.262 165.396  38.287  0.00  0.00    +0.122 HD
ENDBRANCH  10  11
ENDBRANCH   6  10
TORSDOF 3
ENDMDL
MODEL 4
REMARK VINA RESULT:    -6.055      4.241      7.009
REMARK INTER + INTRA:          -7.245
REMARK INTER:                  -6.949
REMARK INTRA:                  -0.296
REMARK UNBOUND:                -0.128
REMARK  Name = 
REMARK  5 active torsions:
REMARK  status: ('A' for Active; 'I' for Inactive)
REMARK    1  A    between atoms: C_1  and  C_2
REMARK    2  A    between atoms: C_5  and  O_6
REMARK    3  A    between atoms: O_6  and  C_7
REMARK    4  A    between atoms: C_8  and  C_9
REMARK    5  A    between atoms: C_9  and  N_10
REMARK                            x       y       z     vdW  Elec       q    Type
REMARK                         _______ _______ _______ _____ _____    ______ ____
ROOT
ATOM      1  C   UNL     1      46.600 163.686  40.293  0.00  0.00    +0.044 C 
ATOM      2  C   UNL     1      47.697 162.759  40.726  0.00  0.00    -0.050 A 
ATOM      3  C   UNL     1      47.435 161.406  40.952  0.00  0.00    +0.007 A 
ATOM      4  C   UNL     1      48.452 160.549  41.384  0.00  0.00    +0.046 A 
ATOM      5  C   UNL     1      49.743 161.033  41.615  0.00  0.00    +0.124 A 
ATOM      6  C   UNL     1      50.020 162.396  41.401  0.00  0.00    +0.008 A 
ATOM      7  C   UNL     1      48.987 163.247  40.962  0.00  0.00    +0.012 A 
ENDROOT
BRANCH   5   8
ATOM      8  O   UNL     1      50.798 160.254  42.014  0.00  0.00    -0.495 OA
ATOM      9  C   UNL     1      50.510 158.905  42.359  0.00  0.00    +0.277 C 
ENDBRANCH   5   8
BRANCH   6  10
ATOM     10  C   UNL     1      51.400 162.975  41.653  0.00  0.00    +0.123 C 
BRANCH  10  11
ATOM     11  N   UNL     1      51.764 164.063  40.731  0.00  0.00    -0.296 NA
ATOM     12  C   UNL     1      52.922 163.725  39.879  0.00  0.00    +0.100 C 
ATOM     13  C   UNL     1      53.553 164.953  39.172  0.00  0.00    +0.096 C 
ATOM     14  N   UNL     1      52.652 166.118  39.133  0.00  0.00    -0.314 NA
ATOM     15  C   UNL     1      52.325 166.503  40.522  0.00  0.00    +0.096 C 
ATOM     16  C   UNL     1      52.027 165.311  41.468  0.00  0.00    +0.100 C 
ATOM     17  H   UNL     1      51.775 165.769  38.734  0.00  0.00    +0.122 HD
ENDBRANCH  10  11
ENDBRANCH   6  10
TORSDOF 3
ENDMDL
MODEL 5
REMARK VINA RESULT:    -6.020      2.369      3.776
REMARK INTER + INTRA:          -7.204
REMARK INTER:                  -6.898
REMARK INTRA:                  -0.305
REMARK UNBOUND:                -0.128
REMARK  Name = 
REMARK  5 active torsions:
REMARK  status: ('A' for Active; 'I' for Inactive)
REMARK    1  A    between atoms: C_1  and  C_2
REMARK    2  A    between atoms: C_5  and  O_6
REMARK    3  A    between atoms: O_6  and  C_7
REMARK    4  A    between atoms: C_8  and  C_9
REMARK    5  A    between atoms: C_9  and  N_10
REMARK                            x       y       z     vdW  Elec       q    Type
REMARK                         _______ _______ _______ _____ _____    ______ ____
ROOT
ATOM      1  C   UNL     1      52.583 162.745  41.798  0.00  0.00    +0.044 C 
ATOM      2  C   UNL     1      51.133 162.497  41.502  0.00  0.00    -0.050 A 
ATOM      3  C   UNL     1      50.316 163.531  41.039  0.00  0.00    +0.007 A 
ATOM      4  C   UNL     1      48.958 163.307  40.793  0.00  0.00    +0.046 A 
ATOM      5  C   UNL     1      48.390 162.050  41.023  0.00  0.00    +0.124 A 
ATOM      6  C   UNL     1      49.198 161.001  41.498  0.00  0.00    +0.008 A 
ATOM      7  C   UNL     1      50.565 161.241  41.739  0.00  0.00    +0.012 A 
ENDROOT
BRANCH   5   8
ATOM      8  O   UNL     1      47.075 161.744  40.783  0.00  0.00    -0.495 OA
ATOM      9  C   UNL     1      46.386 162.552  39.838  0.00  0.00    +0.277 C 
ENDBRANCH   5   8
BRANCH   6  10
ATOM     10  C   UNL     1      48.626 159.624  41.780  0.00  0.00    +0.123 C 
BRANCH  10  11
ATOM     11  N   UNL     1      49.610 158.672  42.321  0.00  0.00    -0.296 NA
ATOM     12  C   UNL     1      49.674 157.416  41.547  0.00  0.00    +0.100 C 
ATOM     13  C   UNL     1      50.413 156.269  42.285  0.00  0.00    +0.096 C 
ATOM     14  N   UNL     1      51.263 156.750  43.387  0.00  0.00    -0.314 NA
ATOM     15  C   UNL     1      50.406 157.451  44.366  0.00  0.00    +0.096 C 
ATOM     16  C   UNL     1      49.335 158.379  43.738  0.00  0.00    +0.100 C 
ATOM     17  H   UNL     1      51.856 157.477  42.976  0.00  0.00    +0.122 HD
ENDBRANCH  10  11
ENDBRANCH   6  10
TORSDOF 3
ENDMDL
MODEL 6
REMARK VINA RESULT:    -5.933      2.811      5.300
REMARK INTER + INTRA:          -7.101
REMARK INTER:                  -6.789
REMARK INTRA:                  -0.313
REMARK UNBOUND:                -0.128
REMARK  Name = 
REMARK  5 active torsions:
REMARK  status: ('A' for Active; 'I' for Inactive)
REMARK    1  A    between atoms: C_1  and  C_2
REMARK    2  A    between atoms: C_5  and  O_6
REMARK    3  A    between atoms: O_6  and  C_7
REMARK    4  A    between atoms: C_8  and  C_9
REMARK    5  A    between atoms: C_9  and  N_10
REMARK                            x       y       z     vdW  Elec       q    Type
REMARK                         _______ _______ _______ _____ _____    ______ ____
ROOT
ATOM      1  C   UNL     1      49.347 162.201  41.419  0.00  0.00    +0.044 C 
ATOM      2  C   UNL     1      49.748 160.775  41.652  0.00  0.00    -0.050 A 
ATOM      3  C   UNL     1      48.825 159.741  41.479  0.00  0.00    +0.007 A 
ATOM      4  C   UNL     1      49.191 158.414  41.726  0.00  0.00    +0.046 A 
ATOM      5  C   UNL     1      50.480 158.100  42.167  0.00  0.00    +0.124 A 
ATOM      6  C   UNL     1      51.417 159.132  42.355  0.00  0.00    +0.008 A 
ATOM      7  C   UNL     1      51.036 160.463  42.100  0.00  0.00    +0.012 A 
ENDROOT
BRANCH   5   8
ATOM      8  O   UNL     1      50.923 156.825  42.406  0.00  0.00    -0.495 OA
ATOM      9  C   UNL     1      49.936 155.806  42.502  0.00  0.00    +0.277 C 
ENDBRANCH   5   8
BRANCH   6  10
ATOM     10  C   UNL     1      52.824 158.846  42.849  0.00  0.00    +0.123 C 
BRANCH  10  11
ATOM     11  N   UNL     1      53.836 159.779  42.329  0.00  0.00    -0.296 NA
ATOM     12  C   UNL     1      54.689 159.173  41.287  0.00  0.00    +0.100 C 
ATOM     13  C   UNL     1      55.975 159.986  40.985  0.00  0.00    +0.096 C 
ATOM     14  N   UNL     1      55.896 161.379  41.457  0.00  0.00    -0.314 NA
ATOM     15  C   UNL     1      55.691 161.367  42.920  0.00  0.00    +0.096 C 
ATOM     16  C   UNL     1      54.672 160.310  43.419  0.00  0.00    +0.100 C 
ATOM     17  H   UNL     1      55.025 161.750  41.064  0.00  0.00    +0.122 HD
ENDBRANCH  10  11
ENDBRANCH   6  10
TORSDOF 3
ENDMDL
MODEL 7
REMARK VINA RESULT:    -5.900      2.449      5.012
REMARK INTER + INTRA:          -7.063
REMARK INTER:                  -6.748
REMARK INTRA:                  -0.315
REMARK UNBOUND:                -0.128
REMARK  Name = 
REMARK  5 active torsions:
REMARK  status: ('A' for Active; 'I' for Inactive)
REMARK    1  A    between atoms: C_1  and  C_2
REMARK    2  A    between atoms: C_5  and  O_6
REMARK    3  A    between atoms: O_6  and  C_7
REMARK    4  A    between atoms: C_8  and  C_9
REMARK    5  A    between atoms: C_9  and  N_10
REMARK                            x       y       z     vdW  Elec       q    Type
REMARK                         _______ _______ _______ _____ _____    ______ ____
ROOT
ATOM      1  C   UNL     1      48.834 156.536  43.408  0.00  0.00    +0.044 C 
ATOM      2  C   UNL     1      49.956 157.459  43.035  0.00  0.00    -0.050 A 
ATOM      3  C   UNL     1      51.285 157.063  43.199  0.00  0.00    +0.007 A 
ATOM      4  C   UNL     1      52.330 157.936  42.879  0.00  0.00    +0.046 A 
ATOM      5  C   UNL     1      52.064 159.225  42.408  0.00  0.00    +0.124 A 
ATOM      6  C   UNL     1      50.730 159.641  42.247  0.00  0.00    +0.008 A 
ATOM      7  C   UNL     1      49.688 158.751  42.570  0.00  0.00    +0.012 A 
ENDROOT
BRANCH   5   8
ATOM      8  O   UNL     1      53.030 160.129  42.049  0.00  0.00    -0.495 OA
ATOM      9  C   UNL     1      54.254 159.603  41.553  0.00  0.00    +0.277 C 
ENDBRANCH   5   8
BRANCH   6  10
ATOM     10  C   UNL     1      50.387 161.036  41.755  0.00  0.00    +0.123 C 
BRANCH  10  11
ATOM     11  N   UNL     1      48.943 161.322  41.740  0.00  0.00    -0.296 NA
ATOM     12  C   UNL     1      48.460 161.745  40.410  0.00  0.00    +0.100 C 
ATOM     13  C   UNL     1      47.052 162.397  40.440  0.00  0.00    +0.096 C 
ATOM     14  N   UNL     1      46.303 162.087  41.669  0.00  0.00    -0.314 NA
ATOM     15  C   UNL     1      47.070 162.596  42.825  0.00  0.00    +0.096 C 
ATOM     16  C   UNL     1      48.597 162.336  42.750  0.00  0.00    +0.100 C 
ATOM     17  H   UNL     1      46.329 161.067  41.754  0.00  0.00    +0.122 HD
ENDBRANCH  10  11
ENDBRANCH   6  10
TORSDOF 3
ENDMDL
MODEL 8
REMARK VINA RESULT:    -5.819      4.303      7.358
REMARK INTER + INTRA:          -6.968
REMARK INTER:                  -6.649
REMARK INTRA:                  -0.318
REMARK UNBOUND:                -0.128
REMARK  Name = 
REMARK  5 active torsions:
REMARK  status: ('A' for Active; 'I' for Inactive)
REMARK    1  A    between atoms: C_1  and  C_2
REMARK    2  A    between atoms: C_5  and  O_6
REMARK    3  A    between atoms: O_6  and  C_7
REMARK    4  A    between atoms: C_8  and  C_9
REMARK    5  A    between atoms: C_9  and  N_10
REMARK                            x       y       z     vdW  Elec       q    Type
REMARK                         _______ _______ _______ _____ _____    ______ ____
ROOT
ATOM      1  C   UNL     1      50.972 159.210  42.462  0.00  0.00    +0.044 C 
ATOM      2  C   UNL     1      50.091 160.273  41.873  0.00  0.00    -0.050 A 
ATOM      3  C   UNL     1      48.868 159.937  41.288  0.00  0.00    +0.007 A 
ATOM      4  C   UNL     1      48.062 160.923  40.713  0.00  0.00    +0.046 A 
ATOM      5  C   UNL     1      48.472 162.260  40.696  0.00  0.00    +0.124 A 
ATOM      6  C   UNL     1      49.706 162.612  41.273  0.00  0.00    +0.008 A 
ATOM      7  C   UNL     1      50.506 161.608  41.852  0.00  0.00    +0.012 A 
ENDROOT
BRANCH   5   8
ATOM      8  O   UNL     1      47.729 163.288  40.175  0.00  0.00    -0.495 OA
ATOM      9  C   UNL     1      46.714 162.942  39.243  0.00  0.00    +0.277 C 
ENDBRANCH   5   8
BRANCH   6  10
ATOM     10  C   UNL     1      50.205 164.045  41.266  0.00  0.00    +0.123 C 
BRANCH  10  11
ATOM     11  N   UNL     1      51.673 164.163  41.279  0.00  0.00    -0.296 NA
ATOM     12  C   UNL     1      52.151 165.228  42.183  0.00  0.00    +0.100 C 
ATOM     13  C   UNL     1      53.634 165.622  41.950  0.00  0.00    +0.096 C 
ATOM     14  N   UNL     1      54.387 164.601  41.202  0.00  0.00    -0.314 NA
ATOM     15  C   UNL     1      53.745 164.419  39.884  0.00  0.00    +0.096 C 
ATOM     16  C   UNL     1      52.195 164.381  39.920  0.00  0.00    +0.100 C 
ATOM     17  H   UNL     1      54.227 163.722  41.705  0.00  0.00    +0.122 HD
ENDBRANCH  10  11
ENDBRANCH   6  10
TORSDOF 3
ENDMDL
MODEL 9
REMARK VINA RESULT:    -5.760      4.559      7.412
REMARK INTER + INTRA:          -6.899
REMARK INTER:                  -6.541
REMARK INTRA:                  -0.357
REMARK UNBOUND:                -0.128
REMARK  Name = 
REMARK  5 active torsions:
REMARK  status: ('A' for Active; 'I' for Inactive)
REMARK    1  A    between atoms: C_1  and  C_2
REMARK    2  A    between atoms: C_5  and  O_6
REMARK    3  A    between atoms: O_6  and  C_7
REMARK    4  A    between atoms: C_8  and  C_9
REMARK    5  A    between atoms: C_9  and  N_10
REMARK                            x       y       z     vdW  Elec       q    Type
REMARK                         _______ _______ _______ _____ _____    ______ ____
ROOT
ATOM      1  C   UNL     1      50.838 159.346  42.472  0.00  0.00    +0.044 C 
ATOM      2  C   UNL     1      49.973 160.403  41.850  0.00  0.00    -0.050 A 
ATOM      3  C   UNL     1      48.704 160.084  41.362  0.00  0.00    +0.007 A 
ATOM      4  C   UNL     1      47.911 161.063  40.754  0.00  0.00    +0.046 A 
ATOM      5  C   UNL     1      48.381 162.372  40.609  0.00  0.00    +0.124 A 
ATOM      6  C   UNL     1      49.661 162.705  41.087  0.00  0.00    +0.008 A 
ATOM      7  C   UNL     1      50.447 161.710  41.700  0.00  0.00    +0.012 A 
ENDROOT
BRANCH   5   8
ATOM      8  O   UNL     1      47.656 163.392  40.049  0.00  0.00    -0.495 OA
ATOM      9  C   UNL     1      46.628 163.029  39.137  0.00  0.00    +0.277 C 
ENDBRANCH   5   8
BRANCH   6  10
ATOM     10  C   UNL     1      50.224 164.107  40.939  0.00  0.00    +0.123 C 
BRANCH  10  11
ATOM     11  N   UNL     1      49.968 164.975  42.100  0.00  0.00    -0.296 NA
ATOM     12  C   UNL     1      49.255 166.217  41.737  0.00  0.00    +0.100 C 
ATOM     13  C   UNL     1      49.294 167.302  42.845  0.00  0.00    +0.096 C 
ATOM     14  N   UNL     1      49.641 166.757  44.169  0.00  0.00    -0.314 NA
ATOM     15  C   UNL     1      50.980 166.137  44.083  0.00  0.00    +0.096 C 
ATOM     16  C   UNL     1      51.221 165.299  42.802  0.00  0.00    +0.100 C 
ATOM     17  H   UNL     1      48.991 165.980  44.321  0.00  0.00    +0.122 HD
ENDBRANCH  10  11
ENDBRANCH   6  10
TORSDOF 3
ENDMDL
