MODEL 1
REMARK VINA RESULT:    -6.618      0.000      0.000
REMARK INTER + INTRA:          -7.977
REMARK INTER:                  -7.779
REMARK INTRA:                  -0.198
REMARK UNBOUND:                -0.198
REMARK  Name = 
REMARK  3 active torsions:
REMARK  status: ('A' for Active; 'I' for Inactive)
REMARK    1  A    between atoms: C_2  and  C_3
REMARK    2  A    between atoms: C_3  and  N_4
REMARK    3  A    between atoms: N_4  and  C_5
REMARK                            x       y       z     vdW  Elec       q    Type
REMARK                         _______ _______ _______ _____ _____    ______ ____
ROOT
ATOM      1  C   UNL     1      48.846 158.035  42.913  0.00  0.00    +0.085 C 
ATOM      2  C   UNL     1      49.783 157.391  41.863  0.00  0.00    +0.028 C 
ATOM      3  C   UNL     1      49.644 155.875  42.049  0.00  0.00    +0.037 C 
ATOM      4  C   UNL     1      49.416 155.798  43.527  0.00  0.00    -0.043 A 
ATOM      5  C   UNL     1      49.563 154.691  44.347  0.00  0.00    +0.004 A 
ATOM      6  C   UNL     1      49.286 154.835  45.708  0.00  0.00    +0.000 A 
ATOM      7  C   UNL     1      48.865 156.070  46.223  0.00  0.00    +0.000 A 
ATOM      8  C   UNL     1      48.707 157.177  45.383  0.00  0.00    +0.005 A 
ATOM      9  C   UNL     1      48.986 157.035  44.033  0.00  0.00    -0.027 A 
ENDROOT
BRANCH   1  10
ATOM     10  N   UNL     1      49.273 159.393  43.229  0.00  0.00    -0.299 NA
ATOM     11  H   UNL     1      49.937 159.375  44.000  0.00  0.00    +0.123 HD
BRANCH  10  12
ATOM     12  C   UNL     1      49.922 160.038  42.092  0.00  0.00    +0.171 C 
BRANCH  12  14
ATOM     13  C   UNL     1      48.097 161.370  40.670  0.00  0.00    +0.005 C 
ATOM     14  C   UNL     1      48.918 160.772  41.310  0.00  0.00    -0.090 C 
ENDBRANCH  12  14
ENDBRANCH  10  12
ENDBRANCH   1  10
TORSDOF 3
ENDMDL
MODEL 2
REMARK VINA RESULT:    -6.205      3.208      5.019
REMARK INTER + INTRA:          -7.491
REMARK INTER:                  -7.194
REMARK INTRA:                  -0.297
REMARK UNBOUND:                -0.198
REMARK  Name = 
REMARK  3 active torsions:
REMARK  status: ('A' for Active; 'I' for Inactive)
REMARK    1  A    between atoms: C_2  and  C_3
REMARK    2  A    between atoms: C_3  and  N_4
REMARK    3  A    between atoms: N_4  and  C_5
REMARK                            x       y       z     vdW  Elec       q    Type
REMARK                         _______ _______ _______ _____ _____    ______ ____
ROOT
ATOM      1  C   UNL     1      48.546 162.037  40.941  0.00  0.00    +0.085 C 
ATOM      2  C   UNL     1      49.461 163.051  41.668  0.00  0.00    +0.028 C 
ATOM      3  C   UNL     1      50.863 162.431  41.663  0.00  0.00    +0.037 C 
ATOM      4  C   UNL     1      50.523 160.976  41.762  0.00  0.00    -0.043 A 
ATOM      5  C   UNL     1      51.356 159.938  42.147  0.00  0.00    +0.004 A 
ATOM      6  C   UNL     1      50.835 158.643  42.159  0.00  0.00    +0.000 A 
ATOM      7  C   UNL     1      49.504 158.406  41.786  0.00  0.00    +0.000 A 
ATOM      8  C   UNL     1      48.676 159.459  41.386  0.00  0.00    +0.005 A 
ATOM      9  C   UNL     1      49.192 160.746  41.377  0.00  0.00    -0.027 A 
ENDROOT
BRANCH   1  10
ATOM     10  N   UNL     1      47.154 162.208  41.345  0.00  0.00    -0.299 NA
ATOM     11  H   UNL     1      47.108 162.431  42.336  0.00  0.00    +0.123 HD
BRANCH  10  12
ATOM     12  C   UNL     1      46.504 163.288  40.609  0.00  0.00    +0.171 C 
BRANCH  12  14
ATOM     13  C   UNL     1      46.600 162.760  37.993  0.00  0.00    +0.005 C 
ATOM     14  C   UNL     1      46.556 162.998  39.170  0.00  0.00    -0.090 C 
ENDBRANCH  12  14
ENDBRANCH  10  12
ENDBRANCH   1  10
TORSDOF 3
ENDMDL
MODEL 3
REMARK VINA RESULT:    -6.181      1.952      6.652
REMARK INTER + INTRA:          -7.463
REMARK INTER:                  -7.257
REMARK INTRA:                  -0.207
REMARK UNBOUND:                -0.198
REMARK  Name = 
REMARK  3 active torsions:
REMARK  status: ('A' for Active; 'I' for Inactive)
REMARK    1  A    between atoms: C_2  and  C_3
REMARK    2  A    between atoms: C_3  and  N_4
REMARK    3  A    between atoms: N_4  and  C_5
REMARK                            x       y       z     vdW  Elec       q    Type
REMARK                         _______ _______ _______ _____ _____    ______ ____
ROOT
ATOM      1  C   UNL     1      48.593 161.018  42.547  0.00  0.00    +0.085 C 
ATOM      2  C   UNL     1      49.921 160.935  41.757  0.00  0.00    +0.028 C 
ATOM      3  C   UNL     1      50.284 162.380  41.393  0.00  0.00    +0.037 C 
ATOM      4  C   UNL     1      48.920 162.970  41.209  0.00  0.00    -0.043 A 
ATOM      5  C   UNL     1      48.588 164.138  40.542  0.00  0.00    +0.004 A 
ATOM      6  C   UNL     1      47.245 164.514  40.498  0.00  0.00    +0.000 A 
ATOM      7  C   UNL     1      46.263 163.729  41.119  0.00  0.00    +0.000 A 
ATOM      8  C   UNL     1      46.611 162.559  41.801  0.00  0.00    +0.005 A 
ATOM      9  C   UNL     1      47.945 162.183  41.842  0.00  0.00    -0.027 A 
ENDROOT
BRANCH   1  10
ATOM     10  N   UNL     1      47.863 159.757  42.472  0.00  0.00    -0.299 NA
ATOM     11  H   UNL     1      47.235 159.768  41.672  0.00  0.00    +0.123 HD
BRANCH  10  12
ATOM     12  C   UNL     1      48.762 158.617  42.322  0.00  0.00    +0.171 C 
BRANCH  12  14
ATOM     13  C   UNL     1      48.453 156.964  44.397  0.00  0.00    +0.005 C 
ATOM     14  C   UNL     1      48.591 157.707  43.463  0.00  0.00    -0.090 C 
ENDBRANCH  12  14
ENDBRANCH  10  12
ENDBRANCH   1  10
TORSDOF 3
ENDMDL
MODEL 4
REMARK VINA RESULT:    -6.158      1.501      4.997
REMARK INTER + INTRA:          -7.436
REMARK INTER:                  -7.140
REMARK INTRA:                  -0.296
REMARK UNBOUND:                -0.198
REMARK  Name = 
REMARK  3 active torsions:
REMARK  status: ('A' for Active; 'I' for Inactive)
REMARK    1  A    between atoms: C_2  and  C_3
REMARK    2  A    between atoms: C_3  and  N_4
REMARK    3  A    between atoms: N_4  and  C_5
REMARK                            x       y       z     vdW  Elec       q    Type
REMARK                         _______ _______ _______ _____ _____    ______ ____
ROOT
ATOM      1  C   UNL     1      50.135 157.295  43.217  0.00  0.00    +0.085 C 
ATOM      2  C   UNL     1      51.538 157.389  42.571  0.00  0.00    +0.028 C 
ATOM      3  C   UNL     1      51.867 158.885  42.498  0.00  0.00    +0.037 C 
ATOM      4  C   UNL     1      50.503 159.458  42.271  0.00  0.00    -0.043 A 
ATOM      5  C   UNL     1      50.185 160.714  41.780  0.00  0.00    +0.004 A 
ATOM      6  C   UNL     1      48.837 161.053  41.656  0.00  0.00    +0.000 A 
ATOM      7  C   UNL     1      47.835 160.144  42.027  0.00  0.00    +0.000 A 
ATOM      8  C   UNL     1      48.168 158.884  42.534  0.00  0.00    +0.005 A 
ATOM      9  C   UNL     1      49.507 158.545  42.654  0.00  0.00    -0.027 A 
ENDROOT
BRANCH   1  10
ATOM     10  N   UNL     1      49.476 156.045  42.851  0.00  0.00    -0.299 NA
ATOM     11  H   UNL     1      49.924 155.646  42.030  0.00  0.00    +0.123 HD
BRANCH  10  12
ATOM     12  C   UNL     1      49.547 155.059  43.925  0.00  0.00    +0.171 C 
BRANCH  12  14
ATOM     13  C   UNL     1      48.926 156.228  46.244  0.00  0.00    +0.005 C 
ATOM     14  C   UNL     1      49.206 155.703  45.201  0.00  0.00    -0.090 C 
ENDBRANCH  12  14
ENDBRANCH  10  12
ENDBRANCH   1  10
TORSDOF 3
ENDMDL
MODEL 5
REMARK VINA RESULT:    -6.068      1.788      2.886
REMARK INTER + INTRA:          -7.330
REMARK INTER:                  -7.076
REMARK INTRA:                  -0.254
REMARK UNBOUND:                -0.198
REMARK  Name = 
REMARK  3 active torsions:
REMARK  status: ('A' for Active; 'I' for Inactive)
REMARK    1  A    between atoms: C_2  and  C_3
REMARK    2  A    between atoms: C_3  and  N_4
REMARK    3  A    between atoms: N_4  and  C_5
REMARK                            x       y       z     vdW  Elec       q    Type
REMARK                         _______ _______ _______ _____ _____    ______ ____
ROOT
ATOM      1  C   UNL     1      48.678 159.833  41.592  0.00  0.00    +0.085 C 
ATOM      2  C   UNL     1      49.938 160.700  41.825  0.00  0.00    +0.028 C 
ATOM      3  C   UNL     1      51.059 159.722  42.198  0.00  0.00    +0.037 C 
ATOM      4  C   UNL     1      50.280 158.678  42.936  0.00  0.00    -0.043 A 
ATOM      5  C   UNL     1      50.769 157.721  43.810  0.00  0.00    +0.004 A 
ATOM      6  C   UNL     1      49.864 156.829  44.387  0.00  0.00    +0.000 A 
ATOM      7  C   UNL     1      48.497 156.902  44.081  0.00  0.00    +0.000 A 
ATOM      8  C   UNL     1      48.016 157.864  43.187  0.00  0.00    +0.005 A 
ATOM      9  C   UNL     1      48.915 158.752  42.616  0.00  0.00    -0.027 A 
ENDROOT
BRANCH   1  10
ATOM     10  N   UNL     1      47.463 160.618  41.780  0.00  0.00    -0.299 NA
ATOM     11  H   UNL     1      46.823 160.122  42.395  0.00  0.00    +0.123 HD
BRANCH  10  12
ATOM     12  C   UNL     1      47.744 161.919  42.379  0.00  0.00    +0.171 C 
BRANCH  12  14
ATOM     13  C   UNL     1      46.371 163.807  41.084  0.00  0.00    +0.005 C 
ATOM     14  C   UNL     1      46.988 162.958  41.667  0.00  0.00    -0.090 C 
ENDBRANCH  12  14
ENDBRANCH  10  12
ENDBRANCH   1  10
TORSDOF 3
ENDMDL
MODEL 6
REMARK VINA RESULT:    -6.059      3.238      7.147
REMARK INTER + INTRA:          -7.319
REMARK INTER:                  -6.917
REMARK INTRA:                  -0.403
REMARK UNBOUND:                -0.198
REMARK  Name = 
REMARK  3 active torsions:
REMARK  status: ('A' for Active; 'I' for Inactive)
REMARK    1  A    between atoms: C_2  and  C_3
REMARK    2  A    between atoms: C_3  and  N_4
REMARK    3  A    between atoms: N_4  and  C_5
REMARK                            x       y       z     vdW  Elec       q    Type
REMARK                         _______ _______ _______ _____ _____    ______ ____
ROOT
ATOM      1  C   UNL     1      47.639 161.798  41.417  0.00  0.00    +0.085 C 
ATOM      2  C   UNL     1      46.488 162.819  41.579  0.00  0.00    +0.028 C 
ATOM      3  C   UNL     1      46.818 163.978  40.630  0.00  0.00    +0.037 C 
ATOM      4  C   UNL     1      48.313 163.974  40.698  0.00  0.00    -0.043 A 
ATOM      5  C   UNL     1      49.178 164.995  40.337  0.00  0.00    +0.004 A 
ATOM      6  C   UNL     1      50.550 164.777  40.471  0.00  0.00    +0.000 A 
ATOM      7  C   UNL     1      51.034 163.553  40.953  0.00  0.00    +0.000 A 
ATOM      8  C   UNL     1      50.153 162.524  41.301  0.00  0.00    +0.005 A 
ATOM      9  C   UNL     1      48.790 162.742  41.172  0.00  0.00    -0.027 A 
ENDROOT
BRANCH   1  10
ATOM     10  N   UNL     1      47.761 160.957  42.603  0.00  0.00    -0.299 NA
ATOM     11  H   UNL     1      46.954 161.094  43.207  0.00  0.00    +0.123 HD
BRANCH  10  12
ATOM     12  C   UNL     1      47.832 159.540  42.261  0.00  0.00    +0.171 C 
BRANCH  12  14
ATOM     13  C   UNL     1      50.391 158.795  42.096  0.00  0.00    +0.005 C 
ATOM     14  C   UNL     1      49.240 159.131  42.171  0.00  0.00    -0.090 C 
ENDBRANCH  12  14
ENDBRANCH  10  12
ENDBRANCH   1  10
TORSDOF 3
ENDMDL
MODEL 7
REMARK VINA RESULT:    -6.019      4.373      6.510
REMARK INTER + INTRA:          -7.272
REMARK INTER:                  -7.038
REMARK INTRA:                  -0.235
REMARK UNBOUND:                -0.198
REMARK  Name = 
REMARK  3 active torsions:
REMARK  status: ('A' for Active; 'I' for Inactive)
REMARK    1  A    between atoms: C_2  and  C_3
REMARK    2  A    between atoms: C_3  and  N_4
REMARK    3  A    between atoms: N_4  and  C_5
REMARK                            x       y       z     vdW  Elec       q    Type
REMARK                         _______ _______ _______ _____ _____    ______ ____
ROOT
ATOM      1  C   UNL     1      48.311 163.992  40.718  0.00  0.00    +0.085 C 
ATOM      2  C   UNL     1      47.075 163.480  39.940  0.00  0.00    +0.028 C 
ATOM      3  C   UNL     1      46.673 162.160  40.610  0.00  0.00    +0.037 C 
ATOM      4  C   UNL     1      48.015 161.641  41.023  0.00  0.00    -0.043 A 
ATOM      5  C   UNL     1      48.349 160.339  41.362  0.00  0.00    +0.004 A 
ATOM      6  C   UNL     1      49.668 160.071  41.731  0.00  0.00    +0.000 A 
ATOM      7  C   UNL     1      50.623 161.097  41.763  0.00  0.00    +0.000 A 
ATOM      8  C   UNL     1      50.272 162.409  41.432  0.00  0.00    +0.005 A 
ATOM      9  C   UNL     1      48.963 162.676  41.061  0.00  0.00    -0.027 A 
ENDROOT
BRANCH   1  10
ATOM     10  N   UNL     1      49.111 164.890  39.892  0.00  0.00    -0.299 NA
ATOM     11  H   UNL     1      48.500 165.466  39.317  0.00  0.00    +0.123 HD
BRANCH  10  12
ATOM     12  C   UNL     1      49.938 165.779  40.701  0.00  0.00    +0.171 C 
BRANCH  12  14
ATOM     13  C   UNL     1      48.366 167.387  42.141  0.00  0.00    +0.005 C 
ATOM     14  C   UNL     1      49.073 166.664  41.492  0.00  0.00    -0.090 C 
ENDBRANCH  12  14
ENDBRANCH  10  12
ENDBRANCH   1  10
TORSDOF 3
ENDMDL
MODEL 8
REMARK VINA RESULT:    -5.969      4.512      6.718
REMARK INTER + INTRA:          -7.214
REMARK INTER:                  -6.816
REMARK INTRA:                  -0.399
REMARK UNBOUND:                -0.198
REMARK  Name = 
REMARK  3 active torsions:
REMARK  status: ('A' for Active; 'I' for Inactive)
REMARK    1  A    between atoms: C_2  and  C_3
REMARK    2  A    between atoms: C_3  and  N_4
REMARK    3  A    between atoms: N_4  and  C_5
REMARK                            x       y       z     vdW  Elec       q    Type
REMARK                         _______ _______ _______ _____ _____    ______ ____
ROOT
ATOM      1  C   UNL     1      50.414 162.035  41.321  0.00  0.00    +0.085 C 
ATOM      2  C   UNL     1      49.877 160.688  41.861  0.00  0.00    +0.028 C 
ATOM      3  C   UNL     1      48.542 160.451  41.145  0.00  0.00    +0.037 C 
ATOM      4  C   UNL     1      48.054 161.859  40.997  0.00  0.00    -0.043 A 
ATOM      5  C   UNL     1      46.759 162.281  40.743  0.00  0.00    +0.004 A 
ATOM      6  C   UNL     1      46.521 163.652  40.631  0.00  0.00    +0.000 A 
ATOM      7  C   UNL     1      47.572 164.571  40.765  0.00  0.00    +0.000 A 
ATOM      8  C   UNL     1      48.877 164.133  41.007  0.00  0.00    +0.005 A 
ATOM      9  C   UNL     1      49.113 162.771  41.123  0.00  0.00    -0.027 A 
ENDROOT
BRANCH   1  10
ATOM     10  N   UNL     1      51.340 162.645  42.270  0.00  0.00    -0.299 NA
ATOM     11  H   UNL     1      51.289 162.159  43.162  0.00  0.00    +0.123 HD
BRANCH  10  12
ATOM     12  C   UNL     1      52.720 162.581  41.800  0.00  0.00    +0.171 C 
BRANCH  12  14
ATOM     13  C   UNL     1      52.956 163.997  39.549  0.00  0.00    +0.005 C 
ATOM     14  C   UNL     1      52.850 163.360  40.562  0.00  0.00    -0.090 C 
ENDBRANCH  12  14
ENDBRANCH  10  12
ENDBRANCH   1  10
TORSDOF 3
ENDMDL
MODEL 9
REMARK VINA RESULT:    -5.961      4.225      6.418
REMARK INTER + INTRA:          -7.205
REMARK INTER:                  -6.854
REMARK INTRA:                  -0.350
REMARK UNBOUND:                -0.198
REMARK  Name = 
REMARK  3 active torsions:
REMARK  status: ('A' for Active; 'I' for Inactive)
REMARK    1  A    between atoms: C_2  and  C_3
REMARK    2  A    between atoms: C_3  and  N_4
REMARK    3  A    between atoms: N_4  and  C_5
REMARK                            x       y       z     vdW  Elec       q    Type
REMARK                         _______ _______ _______ _____ _____    ______ ____
ROOT
ATOM      1  C   UNL     1      48.297 164.096  41.025  0.00  0.00    +0.085 C 
ATOM      2  C   UNL     1      46.774 164.049  40.756  0.00  0.00    +0.028 C 
ATOM      3  C   UNL     1      46.218 162.954  41.674  0.00  0.00    +0.037 C 
ATOM      4  C   UNL     1      47.370 161.997  41.692  0.00  0.00    -0.043 A 
ATOM      5  C   UNL     1      47.352 160.662  42.059  0.00  0.00    +0.004 A 
ATOM      6  C   UNL     1      48.551 159.948  42.013  0.00  0.00    +0.000 A 
ATOM      7  C   UNL     1      49.739 160.575  41.609  0.00  0.00    +0.000 A 
ATOM      8  C   UNL     1      49.748 161.927  41.253  0.00  0.00    +0.005 A 
ATOM      9  C   UNL     1      48.556 162.635  41.296  0.00  0.00    -0.027 A 
ENDROOT
BRANCH   1  10
ATOM     10  N   UNL     1      49.011 164.656  39.882  0.00  0.00    -0.299 NA
ATOM     11  H   UNL     1      48.370 165.199  39.308  0.00  0.00    +0.123 HD
BRANCH  10  12
ATOM     12  C   UNL     1      50.098 165.536  40.299  0.00  0.00    +0.171 C 
BRANCH  12  14
ATOM     13  C   UNL     1      52.430 164.274  39.986  0.00  0.00    +0.005 C 
ATOM     14  C   UNL     1      51.381 164.841  40.127  0.00  0.00    -0.090 C 
ENDBRANCH  12  14
ENDBRANCH  10  12
ENDBRANCH   1  10
TORSDOF 3
ENDMDL
