MODEL 1
REMARK VINA RESULT:    -8.352      0.000      0.000
REMARK INTER + INTRA:         -10.384
REMARK INTER:                 -10.061
REMARK INTRA:                  -0.323
REMARK UNBOUND:                -0.323
REMARK  Name = 
REMARK  5 active torsions:
REMARK  status: ('A' for Active; 'I' for Inactive)
REMARK    1  A    between atoms: C_3  and  O_17
REMARK    2  A    between atoms: C_6  and  C_7
REMARK    3  A    between atoms: C_8  and  C_9
REMARK    4  A    between atoms: C_11  and  O_16
REMARK    5  A    between atoms: C_13  and  O_15
REMARK                            x       y       z     vdW  Elec       q    Type
REMARK                         _______ _______ _______ _____ _____    ______ ____
ROOT
ATOM      1  C   UNL     1      48.125 160.169  41.798  0.00  0.00    +0.008 C 
ATOM      2  C   UNL     1      49.307 159.623  42.124  0.00  0.00    +0.009 C 
ENDROOT
BRANCH   1   8
ATOM      3  C   UNL     1      46.670 162.119  41.357  0.00  0.00    +0.011 A 
ATOM      4  C   UNL     1      46.471 163.453  40.989  0.00  0.00    +0.046 A 
ATOM      5  C   UNL     1      47.567 164.239  40.651  0.00  0.00    +0.117 A 
ATOM      6  C   UNL     1      48.853 163.716  40.680  0.00  0.00    +0.046 A 
ATOM      7  C   UNL     1      49.050 162.382  41.048  0.00  0.00    +0.011 A 
ATOM      8  C   UNL     1      47.960 161.567  41.377  0.00  0.00    -0.025 A 
BRANCH   5   9
ATOM      9  O   UNL     1      47.420 165.545  40.286  0.00  0.00    -0.507 OA
ATOM     10  H   UNL     1      46.543 165.849  40.570  0.00  0.00    +0.292 HD
ENDBRANCH   5   9
ENDBRANCH   1   8
BRANCH   2  11
ATOM     11  C   UNL     1      49.471 158.222  42.542  0.00  0.00    -0.018 A 
ATOM     12  C   UNL     1      50.122 157.275  41.740  0.00  0.00    +0.053 A 
ATOM     13  C   UNL     1      50.278 155.965  42.188  0.00  0.00    +0.121 A 
ATOM     14  C   UNL     1      49.803 155.575  43.434  0.00  0.00    +0.090 A 
ATOM     15  C   UNL     1      49.171 156.518  44.236  0.00  0.00    +0.121 A 
ATOM     16  C   UNL     1      49.005 157.835  43.807  0.00  0.00    +0.053 A 
BRANCH  15  17
ATOM     17  O   UNL     1      48.720 156.108  45.458  0.00  0.00    -0.507 OA
ATOM     18  H   UNL     1      48.310 156.864  45.909  0.00  0.00    +0.292 HD
ENDBRANCH  15  17
BRANCH  13  19
ATOM     19  O   UNL     1      50.915 155.084  41.364  0.00  0.00    -0.507 OA
ATOM     20  H   UNL     1      51.860 155.078  41.593  0.00  0.00    +0.292 HD
ENDBRANCH  13  19
ENDBRANCH   2  11
TORSDOF 5
ENDMDL
MODEL 2
REMARK VINA RESULT:    -8.314      0.546      2.071
REMARK INTER + INTRA:         -10.338
REMARK INTER:                 -10.002
REMARK INTRA:                  -0.336
REMARK UNBOUND:                -0.323
REMARK  Name = 
REMARK  5 active torsions:
REMARK  status: ('A' for Active; 'I' for Inactive)
REMARK    1  A    between atoms: C_3  and  O_17
REMARK    2  A    between atoms: C_6  and  C_7
REMARK    3  A    between atoms: C_8  and  C_9
REMARK    4  A    between atoms: C_11  and  O_16
REMARK    5  A    between atoms: C_13  and  O_15
REMARK                            x       y       z     vdW  Elec       q    Type
REMARK                         _______ _______ _______ _____ _____    ______ ____
ROOT
ATOM      1  C   UNL     1      48.811 160.019  41.380  0.00  0.00    +0.008 C 
ATOM      2  C   UNL     1      49.151 159.611  42.613  0.00  0.00    +0.009 C 
ENDROOT
BRANCH   1   8
ATOM      3  C   UNL     1      47.271 161.762  40.538  0.00  0.00    +0.011 A 
ATOM      4  C   UNL     1      46.963 163.088  40.217  0.00  0.00    +0.046 A 
ATOM      5  C   UNL     1      47.923 164.076  40.402  0.00  0.00    +0.117 A 
ATOM      6  C   UNL     1      49.180 163.761  40.904  0.00  0.00    +0.046 A 
ATOM      7  C   UNL     1      49.486 162.436  41.223  0.00  0.00    +0.011 A 
ATOM      8  C   UNL     1      48.540 161.421  41.030  0.00  0.00    -0.025 A 
BRANCH   5   9
ATOM      9  O   UNL     1      47.667 165.382  40.104  0.00  0.00    -0.507 OA
ATOM     10  H   UNL     1      46.750 165.581  40.353  0.00  0.00    +0.292 HD
ENDBRANCH   5   9
ENDBRANCH   1   8
BRANCH   2  11
ATOM     11  C   UNL     1      49.425 158.208  42.960  0.00  0.00    -0.018 A 
ATOM     12  C   UNL     1      49.055 157.659  44.195  0.00  0.00    +0.053 A 
ATOM     13  C   UNL     1      49.310 156.317  44.470  0.00  0.00    +0.121 A 
ATOM     14  C   UNL     1      49.922 155.498  43.529  0.00  0.00    +0.090 A 
ATOM     15  C   UNL     1      50.274 156.039  42.298  0.00  0.00    +0.121 A 
ATOM     16  C   UNL     1      50.028 157.380  42.002  0.00  0.00    +0.053 A 
BRANCH  15  17
ATOM     17  O   UNL     1      50.869 155.210  41.391  0.00  0.00    -0.507 OA
ATOM     18  H   UNL     1      50.999 155.698  40.561  0.00  0.00    +0.292 HD
ENDBRANCH  15  17
BRANCH  13  19
ATOM     19  O   UNL     1      48.934 155.837  45.690  0.00  0.00    -0.507 OA
ATOM     20  H   UNL     1      48.105 156.273  45.950  0.00  0.00    +0.292 HD
ENDBRANCH  13  19
ENDBRANCH   2  11
TORSDOF 5
ENDMDL
MODEL 3
REMARK VINA RESULT:    -8.267      1.327      2.164
REMARK INTER + INTRA:         -10.281
REMARK INTER:                  -9.943
REMARK INTRA:                  -0.339
REMARK UNBOUND:                -0.323
REMARK  Name = 
REMARK  5 active torsions:
REMARK  status: ('A' for Active; 'I' for Inactive)
REMARK    1  A    between atoms: C_3  and  O_17
REMARK    2  A    between atoms: C_6  and  C_7
REMARK    3  A    between atoms: C_8  and  C_9
REMARK    4  A    between atoms: C_11  and  O_16
REMARK    5  A    between atoms: C_13  and  O_15
REMARK                            x       y       z     vdW  Elec       q    Type
REMARK                         _______ _______ _______ _____ _____    ______ ____
ROOT
ATOM      1  C   UNL     1      48.840 160.161  41.290  0.00  0.00    +0.008 C 
ATOM      2  C   UNL     1      49.823 159.816  42.136  0.00  0.00    +0.009 C 
ENDROOT
BRANCH   1   8
ATOM      3  C   UNL     1      49.401 162.554  41.025  0.00  0.00    +0.011 A 
ATOM      4  C   UNL     1      49.052 163.884  40.770  0.00  0.00    +0.046 A 
ATOM      5  C   UNL     1      47.722 164.205  40.522  0.00  0.00    +0.117 A 
ATOM      6  C   UNL     1      46.741 163.222  40.522  0.00  0.00    +0.046 A 
ATOM      7  C   UNL     1      47.092 161.894  40.778  0.00  0.00    +0.011 A 
ATOM      8  C   UNL     1      48.423 161.549  41.045  0.00  0.00    -0.025 A 
BRANCH   5   9
ATOM      9  O   UNL     1      47.336 165.488  40.268  0.00  0.00    -0.507 OA
ATOM     10  H   UNL     1      46.820 165.499  39.445  0.00  0.00    +0.292 HD
ENDBRANCH   5   9
ENDBRANCH   1   8
BRANCH   2  11
ATOM     11  C   UNL     1      50.241 158.426  42.377  0.00  0.00    -0.018 A 
ATOM     12  C   UNL     1      49.343 157.353  42.300  0.00  0.00    +0.053 A 
ATOM     13  C   UNL     1      49.789 156.050  42.508  0.00  0.00    +0.121 A 
ATOM     14  C   UNL     1      51.125 155.787  42.786  0.00  0.00    +0.090 A 
ATOM     15  C   UNL     1      52.018 156.850  42.847  0.00  0.00    +0.121 A 
ATOM     16  C   UNL     1      51.593 158.162  42.641  0.00  0.00    +0.053 A 
BRANCH  15  17
ATOM     17  O   UNL     1      53.325 156.562  43.117  0.00  0.00    -0.507 OA
ATOM     18  H   UNL     1      53.727 156.167  42.325  0.00  0.00    +0.292 HD
ENDBRANCH  15  17
BRANCH  13  19
ATOM     19  O   UNL     1      48.870 155.044  42.426  0.00  0.00    -0.507 OA
ATOM     20  H   UNL     1      47.997 155.406  42.651  0.00  0.00    +0.292 HD
ENDBRANCH  13  19
ENDBRANCH   2  11
TORSDOF 5
ENDMDL
MODEL 4
REMARK VINA RESULT:    -7.888      1.335      7.344
REMARK INTER + INTRA:          -9.825
REMARK INTER:                  -9.497
REMARK INTRA:                  -0.328
REMARK UNBOUND:                -0.323
REMARK  Name = 
REMARK  5 active torsions:
REMARK  status: ('A' for Active; 'I' for Inactive)
REMARK    1  A    between atoms: C_3  and  O_17
REMARK    2  A    between atoms: C_6  and  C_7
REMARK    3  A    between atoms: C_8  and  C_9
REMARK    4  A    between atoms: C_11  and  O_16
REMARK    5  A    between atoms: C_13  and  O_15
REMARK                            x       y       z     vdW  Elec       q    Type
REMARK                         _______ _______ _______ _____ _____    ______ ____
ROOT
ATOM      1  C   UNL     1      48.498 159.409  42.082  0.00  0.00    +0.008 C 
ATOM      2  C   UNL     1      49.176 160.302  41.343  0.00  0.00    +0.009 C 
ENDROOT
BRANCH   1   8
ATOM      3  C   UNL     1      48.524 157.457  43.599  0.00  0.00    +0.011 A 
ATOM      4  C   UNL     1      48.978 156.188  43.971  0.00  0.00    +0.046 A 
ATOM      5  C   UNL     1      49.925 155.543  43.184  0.00  0.00    +0.117 A 
ATOM      6  C   UNL     1      50.421 156.143  42.033  0.00  0.00    +0.046 A 
ATOM      7  C   UNL     1      49.966 157.412  41.664  0.00  0.00    +0.011 A 
ATOM      8  C   UNL     1      49.024 158.087  42.450  0.00  0.00    -0.025 A 
BRANCH   5   9
ATOM      9  O   UNL     1      50.396 154.305  43.508  0.00  0.00    -0.507 OA
ATOM     10  H   UNL     1      50.091 153.673  42.837  0.00  0.00    +0.292 HD
ENDBRANCH   5   9
ENDBRANCH   1   8
BRANCH   2  11
ATOM     11  C   UNL     1      48.648 161.626  40.978  0.00  0.00    -0.018 A 
ATOM     12  C   UNL     1      47.616 161.787  40.045  0.00  0.00    +0.053 A 
ATOM     13  C   UNL     1      47.129 163.059  39.751  0.00  0.00    +0.121 A 
ATOM     14  C   UNL     1      47.646 164.185  40.379  0.00  0.00    +0.090 A 
ATOM     15  C   UNL     1      48.660 164.024  41.317  0.00  0.00    +0.121 A 
ATOM     16  C   UNL     1      49.161 162.760  41.626  0.00  0.00    +0.053 A 
BRANCH  15  17
ATOM     17  O   UNL     1      49.145 165.147  41.922  0.00  0.00    -0.507 OA
ATOM     18  H   UNL     1      48.969 165.088  42.876  0.00  0.00    +0.292 HD
ENDBRANCH  15  17
BRANCH  13  19
ATOM     19  O   UNL     1      46.126 163.157  38.831  0.00  0.00    -0.507 OA
ATOM     20  H   UNL     1      46.514 163.078  37.943  0.00  0.00    +0.292 HD
ENDBRANCH  13  19
ENDBRANCH   2  11
TORSDOF 5
ENDMDL
MODEL 5
REMARK VINA RESULT:    -7.772      1.387      7.460
REMARK INTER + INTRA:          -9.685
REMARK INTER:                  -9.354
REMARK INTRA:                  -0.331
REMARK UNBOUND:                -0.323
REMARK  Name = 
REMARK  5 active torsions:
REMARK  status: ('A' for Active; 'I' for Inactive)
REMARK    1  A    between atoms: C_3  and  O_17
REMARK    2  A    between atoms: C_6  and  C_7
REMARK    3  A    between atoms: C_8  and  C_9
REMARK    4  A    between atoms: C_11  and  O_16
REMARK    5  A    between atoms: C_13  and  O_15
REMARK                            x       y       z     vdW  Elec       q    Type
REMARK                         _______ _______ _______ _____ _____    ______ ____
ROOT
ATOM      1  C   UNL     1      49.469 159.478  42.415  0.00  0.00    +0.008 C 
ATOM      2  C   UNL     1      48.847 159.964  41.329  0.00  0.00    +0.009 C 
ENDROOT
BRANCH   1   8
ATOM      3  C   UNL     1      50.141 157.179  41.803  0.00  0.00    +0.011 A 
ATOM      4  C   UNL     1      50.266 155.814  42.079  0.00  0.00    +0.046 A 
ATOM      5  C   UNL     1      49.812 155.319  43.297  0.00  0.00    +0.117 A 
ATOM      6  C   UNL     1      49.243 156.164  44.240  0.00  0.00    +0.046 A 
ATOM      7  C   UNL     1      49.118 157.528  43.962  0.00  0.00    +0.011 A 
ATOM      8  C   UNL     1      49.554 158.047  42.736  0.00  0.00    -0.025 A 
BRANCH   5   9
ATOM      9  O   UNL     1      49.914 153.995  43.609  0.00  0.00    -0.507 OA
ATOM     10  H   UNL     1      49.993 153.488  42.785  0.00  0.00    +0.292 HD
ENDBRANCH   5   9
ENDBRANCH   1   8
BRANCH   2  11
ATOM     11  C   UNL     1      48.767 161.397  41.008  0.00  0.00    -0.018 A 
ATOM     12  C   UNL     1      49.751 162.308  41.411  0.00  0.00    +0.053 A 
ATOM     13  C   UNL     1      49.647 163.653  41.061  0.00  0.00    +0.121 A 
ATOM     14  C   UNL     1      48.578 164.113  40.302  0.00  0.00    +0.090 A 
ATOM     15  C   UNL     1      47.610 163.205  39.888  0.00  0.00    +0.121 A 
ATOM     16  C   UNL     1      47.695 161.856  40.227  0.00  0.00    +0.053 A 
BRANCH  15  17
ATOM     17  O   UNL     1      46.575 163.685  39.138  0.00  0.00    -0.507 OA
ATOM     18  H   UNL     1      46.751 163.491  38.203  0.00  0.00    +0.292 HD
ENDBRANCH  15  17
BRANCH  13  19
ATOM     19  O   UNL     1      50.631 164.497  41.485  0.00  0.00    -0.507 OA
ATOM     20  H   UNL     1      51.342 164.498  40.823  0.00  0.00    +0.292 HD
ENDBRANCH  13  19
ENDBRANCH   2  11
TORSDOF 5
ENDMDL
MODEL 6
REMARK VINA RESULT:    -7.698      1.636      2.840
REMARK INTER + INTRA:          -9.596
REMARK INTER:                  -9.273
REMARK INTRA:                  -0.322
REMARK UNBOUND:                -0.323
REMARK  Name = 
REMARK  5 active torsions:
REMARK  status: ('A' for Active; 'I' for Inactive)
REMARK    1  A    between atoms: C_3  and  O_17
REMARK    2  A    between atoms: C_6  and  C_7
REMARK    3  A    between atoms: C_8  and  C_9
REMARK    4  A    between atoms: C_11  and  O_16
REMARK    5  A    between atoms: C_13  and  O_15
REMARK                            x       y       z     vdW  Elec       q    Type
REMARK                         _______ _______ _______ _____ _____    ______ ____
ROOT
ATOM      1  C   UNL     1      50.064 161.187  41.973  0.00  0.00    +0.008 C 
ATOM      2  C   UNL     1      49.531 160.120  41.356  0.00  0.00    +0.009 C 
ENDROOT
BRANCH   1   8
ATOM      3  C   UNL     1      49.095 163.262  41.040  0.00  0.00    +0.011 A 
ATOM      4  C   UNL     1      49.215 164.527  40.456  0.00  0.00    +0.046 A 
ATOM      5  C   UNL     1      50.479 165.034  40.176  0.00  0.00    +0.117 A 
ATOM      6  C   UNL     1      51.620 164.301  40.473  0.00  0.00    +0.046 A 
ATOM      7  C   UNL     1      51.499 163.037  41.057  0.00  0.00    +0.011 A 
ATOM      8  C   UNL     1      50.236 162.499  41.334  0.00  0.00    -0.025 A 
BRANCH   5   9
ATOM      9  O   UNL     1      50.643 166.262  39.607  0.00  0.00    -0.507 OA
ATOM     10  H   UNL     1      51.409 166.694  40.020  0.00  0.00    +0.292 HD
ENDBRANCH   5   9
ENDBRANCH   1   8
BRANCH   2  11
ATOM     11  C   UNL     1      49.357 158.809  41.999  0.00  0.00    -0.018 A 
ATOM     12  C   UNL     1      48.468 158.612  43.063  0.00  0.00    +0.053 A 
ATOM     13  C   UNL     1      48.316 157.346  43.624  0.00  0.00    +0.121 A 
ATOM     14  C   UNL     1      49.029 156.258  43.137  0.00  0.00    +0.090 A 
ATOM     15  C   UNL     1      49.900 156.450  42.070  0.00  0.00    +0.121 A 
ATOM     16  C   UNL     1      50.067 157.709  41.494  0.00  0.00    +0.053 A 
BRANCH  15  17
ATOM     17  O   UNL     1      50.583 155.362  41.609  0.00  0.00    -0.507 OA
ATOM     18  H   UNL     1      50.713 155.459  40.651  0.00  0.00    +0.292 HD
ENDBRANCH  15  17
BRANCH  13  19
ATOM     19  O   UNL     1      47.440 157.213  44.662  0.00  0.00    -0.507 OA
ATOM     20  H   UNL     1      46.566 156.991  44.300  0.00  0.00    +0.292 HD
ENDBRANCH  13  19
ENDBRANCH   2  11
TORSDOF 5
ENDMDL
MODEL 7
REMARK VINA RESULT:    -6.890      1.857      7.651
REMARK INTER + INTRA:          -8.622
REMARK INTER:                  -8.260
REMARK INTRA:                  -0.362
REMARK UNBOUND:                -0.323
REMARK  Name = 
REMARK  5 active torsions:
REMARK  status: ('A' for Active; 'I' for Inactive)
REMARK    1  A    between atoms: C_3  and  O_17
REMARK    2  A    between atoms: C_6  and  C_7
REMARK    3  A    between atoms: C_8  and  C_9
REMARK    4  A    between atoms: C_11  and  O_16
REMARK    5  A    between atoms: C_13  and  O_15
REMARK                            x       y       z     vdW  Elec       q    Type
REMARK                         _______ _______ _______ _____ _____    ______ ____
ROOT
ATOM      1  C   UNL     1      50.721 160.572  41.847  0.00  0.00    +0.008 C 
ATOM      2  C   UNL     1      49.621 161.286  41.559  0.00  0.00    +0.009 C 
ENDROOT
BRANCH   1   8
ATOM      3  C   UNL     1      49.624 158.361  41.699  0.00  0.00    +0.011 A 
ATOM      4  C   UNL     1      49.583 156.984  41.940  0.00  0.00    +0.046 A 
ATOM      5  C   UNL     1      50.633 156.378  42.619  0.00  0.00    +0.117 A 
ATOM      6  C   UNL     1      51.721 157.122  43.056  0.00  0.00    +0.046 A 
ATOM      7  C   UNL     1      51.761 158.498  42.815  0.00  0.00    +0.011 A 
ATOM      8  C   UNL     1      50.706 159.134  42.146  0.00  0.00    -0.025 A 
BRANCH   5   9
ATOM      9  O   UNL     1      50.636 155.039  42.876  0.00  0.00    -0.507 OA
ATOM     10  H   UNL     1      50.722 154.907  43.834  0.00  0.00    +0.292 HD
ENDBRANCH   5   9
ENDBRANCH   1   8
BRANCH   2  11
ATOM     11  C   UNL     1      49.638 162.725  41.256  0.00  0.00    -0.018 A 
ATOM     12  C   UNL     1      48.491 163.415  40.845  0.00  0.00    +0.053 A 
ATOM     13  C   UNL     1      48.548 164.784  40.595  0.00  0.00    +0.121 A 
ATOM     14  C   UNL     1      49.733 165.492  40.757  0.00  0.00    +0.090 A 
ATOM     15  C   UNL     1      50.867 164.810  41.181  0.00  0.00    +0.121 A 
ATOM     16  C   UNL     1      50.832 163.439  41.437  0.00  0.00    +0.053 A 
BRANCH  15  17
ATOM     17  O   UNL     1      52.016 165.531  41.337  0.00  0.00    -0.507 OA
ATOM     18  H   UNL     1      52.610 165.337  40.592  0.00  0.00    +0.292 HD
ENDBRANCH  15  17
BRANCH  13  19
ATOM     19  O   UNL     1      47.401 165.404  40.192  0.00  0.00    -0.507 OA
ATOM     20  H   UNL     1      47.168 165.076  39.307  0.00  0.00    +0.292 HD
ENDBRANCH  13  19
ENDBRANCH   2  11
TORSDOF 5
ENDMDL
MODEL 8
REMARK VINA RESULT:    -6.723      2.439      3.318
REMARK INTER + INTRA:          -8.422
REMARK INTER:                  -8.080
REMARK INTRA:                  -0.342
REMARK UNBOUND:                -0.323
REMARK  Name = 
REMARK  5 active torsions:
REMARK  status: ('A' for Active; 'I' for Inactive)
REMARK    1  A    between atoms: C_3  and  O_17
REMARK    2  A    between atoms: C_6  and  C_7
REMARK    3  A    between atoms: C_8  and  C_9
REMARK    4  A    between atoms: C_11  and  O_16
REMARK    5  A    between atoms: C_13  and  O_15
REMARK                            x       y       z     vdW  Elec       q    Type
REMARK                         _______ _______ _______ _____ _____    ______ ____
ROOT
ATOM      1  C   UNL     1      51.103 161.910  41.537  0.00  0.00    +0.008 C 
ATOM      2  C   UNL     1      49.959 161.245  41.766  0.00  0.00    +0.009 C 
ENDROOT
BRANCH   1   8
ATOM      3  C   UNL     1      52.393 163.788  40.575  0.00  0.00    +0.011 A 
ATOM      4  C   UNL     1      52.485 165.076  40.038  0.00  0.00    +0.046 A 
ATOM      5  C   UNL     1      51.337 165.851  39.921  0.00  0.00    +0.117 A 
ATOM      6  C   UNL     1      50.103 165.360  40.327  0.00  0.00    +0.046 A 
ATOM      7  C   UNL     1      50.013 164.073  40.863  0.00  0.00    +0.011 A 
ATOM      8  C   UNL     1      51.158 163.279  41.005  0.00  0.00    -0.025 A 
BRANCH   5   9
ATOM      9  O   UNL     1      51.380 167.112  39.403  0.00  0.00    -0.507 OA
ATOM     10  H   UNL     1      50.693 167.190  38.721  0.00  0.00    +0.292 HD
ENDBRANCH   5   9
ENDBRANCH   1   8
BRANCH   2  11
ATOM     11  C   UNL     1      49.907 159.876  42.302  0.00  0.00    -0.018 A 
ATOM     12  C   UNL     1      51.058 159.096  42.472  0.00  0.00    +0.053 A 
ATOM     13  C   UNL     1      50.963 157.814  43.009  0.00  0.00    +0.121 A 
ATOM     14  C   UNL     1      49.736 157.289  43.393  0.00  0.00    +0.090 A 
ATOM     15  C   UNL     1      48.596 158.069  43.239  0.00  0.00    +0.121 A 
ATOM     16  C   UNL     1      48.668 159.355  42.705  0.00  0.00    +0.053 A 
BRANCH  15  17
ATOM     17  O   UNL     1      47.404 157.529  43.631  0.00  0.00    -0.507 OA
ATOM     18  H   UNL     1      47.426 156.572  43.465  0.00  0.00    +0.292 HD
ENDBRANCH  15  17
BRANCH  13  19
ATOM     19  O   UNL     1      52.116 157.097  43.147  0.00  0.00    -0.507 OA
ATOM     20  H   UNL     1      51.915 156.159  42.996  0.00  0.00    +0.292 HD
ENDBRANCH  13  19
ENDBRANCH   2  11
TORSDOF 5
ENDMDL
MODEL 9
REMARK VINA RESULT:    -6.620      4.464      5.656
REMARK INTER + INTRA:          -8.298
REMARK INTER:                  -7.932
REMARK INTRA:                  -0.366
REMARK UNBOUND:                -0.323
REMARK  Name = 
REMARK  5 active torsions:
REMARK  status: ('A' for Active; 'I' for Inactive)
REMARK    1  A    between atoms: C_3  and  O_17
REMARK    2  A    between atoms: C_6  and  C_7
REMARK    3  A    between atoms: C_8  and  C_9
REMARK    4  A    between atoms: C_11  and  O_16
REMARK    5  A    between atoms: C_13  and  O_15
REMARK                            x       y       z     vdW  Elec       q    Type
REMARK                         _______ _______ _______ _____ _____    ______ ____
ROOT
ATOM      1  C   UNL     1      53.166 158.774  42.170  0.00  0.00    +0.008 C 
ATOM      2  C   UNL     1      51.889 159.021  42.505  0.00  0.00    +0.009 C 
ENDROOT
BRANCH   1   8
ATOM      3  C   UNL     1      53.771 161.165  41.990  0.00  0.00    +0.011 A 
ATOM      4  C   UNL     1      54.670 162.192  41.684  0.00  0.00    +0.046 A 
ATOM      5  C   UNL     1      55.936 161.873  41.209  0.00  0.00    +0.117 A 
ATOM      6  C   UNL     1      56.319 160.548  41.039  0.00  0.00    +0.046 A 
ATOM      7  C   UNL     1      55.419 159.523  41.344  0.00  0.00    +0.011 A 
ATOM      8  C   UNL     1      54.132 159.822  41.809  0.00  0.00    -0.025 A 
BRANCH   5   9
ATOM      9  O   UNL     1      56.845 162.841  40.899  0.00  0.00    -0.507 OA
ATOM     10  H   UNL     1      57.649 162.414  40.560  0.00  0.00    +0.292 HD
ENDBRANCH   5   9
ENDBRANCH   1   8
BRANCH   2  11
ATOM     11  C   UNL     1      50.925 157.971  42.868  0.00  0.00    -0.018 A 
ATOM     12  C   UNL     1      49.580 158.255  43.138  0.00  0.00    +0.053 A 
ATOM     13  C   UNL     1      48.696 157.225  43.451  0.00  0.00    +0.121 A 
ATOM     14  C   UNL     1      49.123 155.904  43.493  0.00  0.00    +0.090 A 
ATOM     15  C   UNL     1      50.454 155.621  43.210  0.00  0.00    +0.121 A 
ATOM     16  C   UNL     1      51.356 156.636  42.894  0.00  0.00    +0.053 A 
BRANCH  15  17
ATOM     17  O   UNL     1      50.845 154.313  43.254  0.00  0.00    -0.507 OA
ATOM     18  H   UNL     1      51.571 154.183  42.621  0.00  0.00    +0.292 HD
ENDBRANCH  15  17
BRANCH  13  19
ATOM     19  O   UNL     1      47.398 157.559  43.710  0.00  0.00    -0.507 OA
ATOM     20  H   UNL     1      47.311 157.743  44.660  0.00  0.00    +0.292 HD
ENDBRANCH  13  19
ENDBRANCH   2  11
TORSDOF 5
ENDMDL
