MODEL 1
REMARK VINA RESULT:    -7.124      0.000      0.000
REMARK INTER + INTRA:          -9.395
REMARK INTER:                  -9.207
REMARK INTRA:                  -0.188
REMARK UNBOUND:                -0.188
REMARK  Name = 
REMARK  10 active torsions:
REMARK  status: ('A' for Active; 'I' for Inactive)
REMARK    1  A    between atoms: C_1  and  C_2
REMARK    2  A    between atoms: C_2  and  N_3
REMARK    3  A    between atoms: N_3  and  C_4
REMARK    4  A    between atoms: C_5  and  O_7
REMARK    5  A    between atoms: O_7  and  C_8
REMARK    6  A    between atoms: C_12  and  C_14
REMARK    7  A    between atoms: C_14  and  C_15
REMARK    8  A    between atoms: C_14  and  N_16
REMARK    9  A    between atoms: N_16  and  C_17
REMARK   10  A    between atoms: N_16  and  C_18
REMARK                            x       y       z     vdW  Elec       q    Type
REMARK                         _______ _______ _______ _____ _____    ______ ____
ROOT
ATOM      1  C   UNL     1      48.667 158.623  42.811  0.00  0.00    +0.134 A 
ATOM      2  C   UNL     1      50.041 158.784  42.664  0.00  0.00    +0.046 A 
ATOM      3  C   UNL     1      50.525 159.940  42.058  0.00  0.00    +0.004 A 
ATOM      4  C   UNL     1      49.638 160.919  41.596  0.00  0.00    +0.005 A 
ATOM      5  C   UNL     1      48.247 160.760  41.731  0.00  0.00    -0.027 A 
ATOM      6  C   UNL     1      47.772 159.581  42.338  0.00  0.00    +0.051 A 
ENDROOT
BRANCH   5   7
ATOM      7  C   UNL     1      47.228 161.790  41.241  0.00  0.00    +0.083 C 
ATOM      8  C   UNL     1      46.635 162.677  42.352  0.00  0.00    +0.029 C 
BRANCH   7   9
ATOM      9  N   UNL     1      47.752 162.532  40.070  0.00  0.00    -0.302 NA
ATOM     10  C   UNL     1      48.249 163.870  40.387  0.00  0.00    +0.105 C 
ATOM     11  C   UNL     1      46.796 162.587  38.967  0.00  0.00    +0.105 C 
ENDBRANCH   7   9
ENDBRANCH   5   7
BRANCH   1  12
ATOM     12  O   UNL     1      48.142 157.448  43.357  0.00  0.00    -0.411 OA
BRANCH  12  15
ATOM     13  N   UNL     1      49.375 155.775  44.376  0.00  0.00    -0.270 N 
ATOM     14  C   UNL     1      48.930 156.282  45.663  0.00  0.00    +0.135 C 
ATOM     15  C   UNL     1      48.913 156.304  43.172  0.00  0.00    +0.408 C 
ATOM     16  O   UNL     1      49.162 155.802  42.079  0.00  0.00    -0.226 OA
BRANCH  13  18
ATOM     17  C   UNL     1      49.248 153.403  45.073  0.00  0.00    +0.024 C 
ATOM     18  C   UNL     1      50.044 154.480  44.352  0.00  0.00    +0.107 C 
ENDBRANCH  13  18
ENDBRANCH  12  15
ENDBRANCH   1  12
TORSDOF 5
ENDMDL
MODEL 2
REMARK VINA RESULT:    -6.947      0.946      1.386
REMARK INTER + INTRA:          -9.165
REMARK INTER:                  -8.889
REMARK INTRA:                  -0.276
REMARK UNBOUND:                -0.188
REMARK  Name = 
REMARK  10 active torsions:
REMARK  status: ('A' for Active; 'I' for Inactive)
REMARK    1  A    between atoms: C_1  and  C_2
REMARK    2  A    between atoms: C_2  and  N_3
REMARK    3  A    between atoms: N_3  and  C_4
REMARK    4  A    between atoms: C_5  and  O_7
REMARK    5  A    between atoms: O_7  and  C_8
REMARK    6  A    between atoms: C_12  and  C_14
REMARK    7  A    between atoms: C_14  and  C_15
REMARK    8  A    between atoms: C_14  and  N_16
REMARK    9  A    between atoms: N_16  and  C_17
REMARK   10  A    between atoms: N_16  and  C_18
REMARK                            x       y       z     vdW  Elec       q    Type
REMARK                         _______ _______ _______ _____ _____    ______ ____
ROOT
ATOM      1  C   UNL     1      49.581 158.920  41.808  0.00  0.00    +0.134 A 
ATOM      2  C   UNL     1      50.824 159.485  42.076  0.00  0.00    +0.046 A 
ATOM      3  C   UNL     1      50.964 160.869  42.018  0.00  0.00    +0.004 A 
ATOM      4  C   UNL     1      49.870 161.675  41.683  0.00  0.00    +0.005 A 
ATOM      5  C   UNL     1      48.613 161.112  41.401  0.00  0.00    -0.027 A 
ATOM      6  C   UNL     1      48.489 159.711  41.455  0.00  0.00    +0.051 A 
ENDROOT
BRANCH   5   7
ATOM      7  C   UNL     1      47.382 161.940  41.023  0.00  0.00    +0.083 C 
ATOM      8  C   UNL     1      46.653 162.576  42.222  0.00  0.00    +0.029 C 
BRANCH   7   9
ATOM      9  N   UNL     1      47.698 162.879  39.922  0.00  0.00    -0.302 NA
ATOM     10  C   UNL     1      47.857 164.268  40.350  0.00  0.00    +0.105 C 
ATOM     11  C   UNL     1      46.747 162.788  38.817  0.00  0.00    +0.105 C 
ENDBRANCH   7   9
ENDBRANCH   5   7
BRANCH   1  12
ATOM     12  O   UNL     1      49.417 157.532  41.795  0.00  0.00    -0.411 OA
BRANCH  12  15
ATOM     13  N   UNL     1      49.702 155.845  43.354  0.00  0.00    -0.270 N 
ATOM     14  C   UNL     1      50.907 155.445  42.646  0.00  0.00    +0.135 C 
ATOM     15  C   UNL     1      48.966 156.970  42.986  0.00  0.00    +0.408 C 
ATOM     16  O   UNL     1      48.032 157.407  43.652  0.00  0.00    -0.226 OA
BRANCH  13  18
ATOM     17  C   UNL     1      49.560 153.740  44.651  0.00  0.00    +0.024 C 
ATOM     18  C   UNL     1      49.461 155.258  44.667  0.00  0.00    +0.107 C 
ENDBRANCH  13  18
ENDBRANCH  12  15
ENDBRANCH   1  12
TORSDOF 5
ENDMDL
MODEL 3
REMARK VINA RESULT:    -6.710      2.060      6.964
REMARK INTER + INTRA:          -8.859
REMARK INTER:                  -8.420
REMARK INTRA:                  -0.440
REMARK UNBOUND:                -0.188
REMARK  Name = 
REMARK  10 active torsions:
REMARK  status: ('A' for Active; 'I' for Inactive)
REMARK    1  A    between atoms: C_1  and  C_2
REMARK    2  A    between atoms: C_2  and  N_3
REMARK    3  A    between atoms: N_3  and  C_4
REMARK    4  A    between atoms: C_5  and  O_7
REMARK    5  A    between atoms: O_7  and  C_8
REMARK    6  A    between atoms: C_12  and  C_14
REMARK    7  A    between atoms: C_14  and  C_15
REMARK    8  A    between atoms: C_14  and  N_16
REMARK    9  A    between atoms: N_16  and  C_17
REMARK   10  A    between atoms: N_16  and  C_18
REMARK                            x       y       z     vdW  Elec       q    Type
REMARK                         _______ _______ _______ _____ _____    ______ ____
ROOT
ATOM      1  C   UNL     1      48.880 160.538  41.367  0.00  0.00    +0.134 A 
ATOM      2  C   UNL     1      49.906 161.476  41.449  0.00  0.00    +0.046 A 
ATOM      3  C   UNL     1      51.169 161.062  41.863  0.00  0.00    +0.004 A 
ATOM      4  C   UNL     1      51.396 159.722  42.201  0.00  0.00    +0.005 A 
ATOM      5  C   UNL     1      50.363 158.771  42.132  0.00  0.00    -0.027 A 
ATOM      6  C   UNL     1      49.090 159.206  41.720  0.00  0.00    +0.051 A 
ENDROOT
BRANCH   5   7
ATOM      7  C   UNL     1      50.549 157.295  42.494  0.00  0.00    +0.083 C 
ATOM      8  C   UNL     1      51.930 156.956  43.086  0.00  0.00    +0.029 C 
BRANCH   7   9
ATOM      9  N   UNL     1      49.398 156.799  43.283  0.00  0.00    -0.302 NA
ATOM     10  C   UNL     1      49.452 157.151  44.701  0.00  0.00    +0.105 C 
ATOM     11  C   UNL     1      49.182 155.364  43.118  0.00  0.00    +0.105 C 
ENDBRANCH   7   9
ENDBRANCH   5   7
BRANCH   1  12
ATOM     12  O   UNL     1      47.585 160.929  41.017  0.00  0.00    -0.411 OA
BRANCH  12  15
ATOM     13  N   UNL     1      46.931 163.093  40.520  0.00  0.00    -0.270 N 
ATOM     14  C   UNL     1      46.948 162.735  39.111  0.00  0.00    +0.135 C 
ATOM     15  C   UNL     1      47.170 162.157  41.525  0.00  0.00    +0.408 C 
ATOM     16  O   UNL     1      47.021 162.402  42.718  0.00  0.00    -0.226 OA
BRANCH  13  18
ATOM     17  C   UNL     1      47.325 165.508  40.898  0.00  0.00    +0.024 C 
ATOM     18  C   UNL     1      46.321 164.365  40.890  0.00  0.00    +0.107 C 
ENDBRANCH  13  18
ENDBRANCH  12  15
ENDBRANCH   1  12
TORSDOF 5
ENDMDL
MODEL 4
REMARK VINA RESULT:    -6.632      2.275      4.011
REMARK INTER + INTRA:          -8.759
REMARK INTER:                  -8.332
REMARK INTRA:                  -0.427
REMARK UNBOUND:                -0.188
REMARK  Name = 
REMARK  10 active torsions:
REMARK  status: ('A' for Active; 'I' for Inactive)
REMARK    1  A    between atoms: C_1  and  C_2
REMARK    2  A    between atoms: C_2  and  N_3
REMARK    3  A    between atoms: N_3  and  C_4
REMARK    4  A    between atoms: C_5  and  O_7
REMARK    5  A    between atoms: O_7  and  C_8
REMARK    6  A    between atoms: C_12  and  C_14
REMARK    7  A    between atoms: C_14  and  C_15
REMARK    8  A    between atoms: C_14  and  N_16
REMARK    9  A    between atoms: N_16  and  C_17
REMARK   10  A    between atoms: N_16  and  C_18
REMARK                            x       y       z     vdW  Elec       q    Type
REMARK                         _______ _______ _______ _____ _____    ______ ____
ROOT
ATOM      1  C   UNL     1      49.196 158.453  42.763  0.00  0.00    +0.134 A 
ATOM      2  C   UNL     1      48.510 159.440  42.062  0.00  0.00    +0.046 A 
ATOM      3  C   UNL     1      49.223 160.508  41.525  0.00  0.00    +0.004 A 
ATOM      4  C   UNL     1      50.610 160.588  41.698  0.00  0.00    +0.005 A 
ATOM      5  C   UNL     1      51.310 159.600  42.413  0.00  0.00    -0.027 A 
ATOM      6  C   UNL     1      50.574 158.531  42.958  0.00  0.00    +0.051 A 
ENDROOT
BRANCH   5   7
ATOM      7  C   UNL     1      52.824 159.635  42.640  0.00  0.00    +0.083 C 
ATOM      8  C   UNL     1      53.511 158.260  42.553  0.00  0.00    +0.029 C 
BRANCH   7   9
ATOM      9  N   UNL     1      53.453 160.696  41.819  0.00  0.00    -0.302 NA
ATOM     10  C   UNL     1      54.500 160.212  40.922  0.00  0.00    +0.105 C 
ATOM     11  C   UNL     1      53.943 161.812  42.625  0.00  0.00    +0.105 C 
ENDBRANCH   7   9
ENDBRANCH   5   7
BRANCH   1  12
ATOM     12  O   UNL     1      48.506 157.400  43.371  0.00  0.00    -0.411 OA
BRANCH  12  15
ATOM     13  N   UNL     1      49.411 155.548  44.423  0.00  0.00    -0.270 N 
ATOM     14  C   UNL     1      49.035 156.136  45.699  0.00  0.00    +0.135 C 
ATOM     15  C   UNL     1      49.071 156.139  43.207  0.00  0.00    +0.408 C 
ATOM     16  O   UNL     1      49.251 155.592  42.123  0.00  0.00    -0.226 OA
BRANCH  13  18
ATOM     17  C   UNL     1      49.197 153.343  45.529  0.00  0.00    +0.024 C 
ATOM     18  C   UNL     1      49.846 154.157  44.420  0.00  0.00    +0.107 C 
ENDBRANCH  13  18
ENDBRANCH  12  15
ENDBRANCH   1  12
TORSDOF 5
ENDMDL
MODEL 5
REMARK VINA RESULT:    -6.531      1.983      3.007
REMARK INTER + INTRA:          -8.628
REMARK INTER:                  -8.165
REMARK INTRA:                  -0.463
REMARK UNBOUND:                -0.188
REMARK  Name = 
REMARK  10 active torsions:
REMARK  status: ('A' for Active; 'I' for Inactive)
REMARK    1  A    between atoms: C_1  and  C_2
REMARK    2  A    between atoms: C_2  and  N_3
REMARK    3  A    between atoms: N_3  and  C_4
REMARK    4  A    between atoms: C_5  and  O_7
REMARK    5  A    between atoms: O_7  and  C_8
REMARK    6  A    between atoms: C_12  and  C_14
REMARK    7  A    between atoms: C_14  and  C_15
REMARK    8  A    between atoms: C_14  and  N_16
REMARK    9  A    between atoms: N_16  and  C_17
REMARK   10  A    between atoms: N_16  and  C_18
REMARK                            x       y       z     vdW  Elec       q    Type
REMARK                         _______ _______ _______ _____ _____    ______ ____
ROOT
ATOM      1  C   UNL     1      50.203 159.354  42.056  0.00  0.00    +0.134 A 
ATOM      2  C   UNL     1      48.960 159.199  41.449  0.00  0.00    +0.046 A 
ATOM      3  C   UNL     1      48.338 160.311  40.888  0.00  0.00    +0.004 A 
ATOM      4  C   UNL     1      48.953 161.567  40.946  0.00  0.00    +0.005 A 
ATOM      5  C   UNL     1      50.204 161.735  41.566  0.00  0.00    -0.027 A 
ATOM      6  C   UNL     1      50.816 160.603  42.136  0.00  0.00    +0.051 A 
ENDROOT
BRANCH   5   7
ATOM      7  C   UNL     1      50.922 163.083  41.666  0.00  0.00    +0.083 C 
ATOM      8  C   UNL     1      52.298 163.121  40.976  0.00  0.00    +0.029 C 
BRANCH   7   9
ATOM      9  N   UNL     1      50.013 164.191  41.296  0.00  0.00    -0.302 NA
ATOM     10  C   UNL     1      50.551 165.088  40.274  0.00  0.00    +0.105 C 
ATOM     11  C   UNL     1      49.554 164.952  42.456  0.00  0.00    +0.105 C 
ENDBRANCH   7   9
ENDBRANCH   5   7
BRANCH   1  12
ATOM     12  O   UNL     1      50.828 158.274  42.685  0.00  0.00    -0.411 OA
BRANCH  12  15
ATOM     13  N   UNL     1      49.964 156.254  43.414  0.00  0.00    -0.270 N 
ATOM     14  C   UNL     1      50.724 155.593  42.365  0.00  0.00    +0.135 C 
ATOM     15  C   UNL     1      50.070 157.622  43.654  0.00  0.00    +0.408 C 
ATOM     16  O   UNL     1      49.552 158.176  44.620  0.00  0.00    -0.226 OA
BRANCH  13  18
ATOM     17  C   UNL     1      49.880 153.990  44.413  0.00  0.00    +0.024 C 
ATOM     18  C   UNL     1      49.352 155.416  44.438  0.00  0.00    +0.107 C 
ENDBRANCH  13  18
ENDBRANCH  12  15
ENDBRANCH   1  12
TORSDOF 5
ENDMDL
MODEL 6
REMARK VINA RESULT:    -6.456      2.014      6.455
REMARK INTER + INTRA:          -8.532
REMARK INTER:                  -8.300
REMARK INTRA:                  -0.232
REMARK UNBOUND:                -0.188
REMARK  Name = 
REMARK  10 active torsions:
REMARK  status: ('A' for Active; 'I' for Inactive)
REMARK    1  A    between atoms: C_1  and  C_2
REMARK    2  A    between atoms: C_2  and  N_3
REMARK    3  A    between atoms: N_3  and  C_4
REMARK    4  A    between atoms: C_5  and  O_7
REMARK    5  A    between atoms: O_7  and  C_8
REMARK    6  A    between atoms: C_12  and  C_14
REMARK    7  A    between atoms: C_14  and  C_15
REMARK    8  A    between atoms: C_14  and  N_16
REMARK    9  A    between atoms: N_16  and  C_17
REMARK   10  A    between atoms: N_16  and  C_18
REMARK                            x       y       z     vdW  Elec       q    Type
REMARK                         _______ _______ _______ _____ _____    ______ ____
ROOT
ATOM      1  C   UNL     1      50.982 159.891  42.304  0.00  0.00    +0.134 A 
ATOM      2  C   UNL     1      52.359 159.729  42.175  0.00  0.00    +0.046 A 
ATOM      3  C   UNL     1      52.967 158.618  42.751  0.00  0.00    +0.004 A 
ATOM      4  C   UNL     1      52.201 157.684  43.459  0.00  0.00    +0.005 A 
ATOM      5  C   UNL     1      50.812 157.844  43.604  0.00  0.00    -0.027 A 
ATOM      6  C   UNL     1      50.213 158.977  43.023  0.00  0.00    +0.051 A 
ENDROOT
BRANCH   5   7
ATOM      7  C   UNL     1      49.924 156.861  44.371  0.00  0.00    +0.083 C 
ATOM      8  C   UNL     1      48.506 157.384  44.667  0.00  0.00    +0.029 C 
BRANCH   7   9
ATOM      9  N   UNL     1      49.971 155.516  43.750  0.00  0.00    -0.302 NA
ATOM     10  C   UNL     1      49.317 155.439  42.445  0.00  0.00    +0.105 C 
ATOM     11  C   UNL     1      49.470 154.471  44.638  0.00  0.00    +0.105 C 
ENDBRANCH   7   9
ENDBRANCH   5   7
BRANCH   1  12
ATOM     12  O   UNL     1      50.347 161.026  41.793  0.00  0.00    -0.411 OA
BRANCH  12  15
ATOM     13  N   UNL     1      48.169 161.806  41.855  0.00  0.00    -0.270 N 
ATOM     14  C   UNL     1      48.645 162.967  42.589  0.00  0.00    +0.135 C 
ATOM     15  C   UNL     1      49.038 160.836  41.358  0.00  0.00    +0.408 C 
ATOM     16  O   UNL     1      48.676 159.928  40.617  0.00  0.00    -0.226 OA
BRANCH  13  18
ATOM     17  C   UNL     1      46.649 162.798  40.172  0.00  0.00    +0.024 C 
ATOM     18  C   UNL     1      46.804 161.840  41.343  0.00  0.00    +0.107 C 
ENDBRANCH  13  18
ENDBRANCH  12  15
ENDBRANCH   1  12
TORSDOF 5
ENDMDL
MODEL 7
REMARK VINA RESULT:    -6.377      3.059      7.461
REMARK INTER + INTRA:          -8.429
REMARK INTER:                  -7.951
REMARK INTRA:                  -0.478
REMARK UNBOUND:                -0.188
REMARK  Name = 
REMARK  10 active torsions:
REMARK  status: ('A' for Active; 'I' for Inactive)
REMARK    1  A    between atoms: C_1  and  C_2
REMARK    2  A    between atoms: C_2  and  N_3
REMARK    3  A    between atoms: N_3  and  C_4
REMARK    4  A    between atoms: C_5  and  O_7
REMARK    5  A    between atoms: O_7  and  C_8
REMARK    6  A    between atoms: C_12  and  C_14
REMARK    7  A    between atoms: C_14  and  C_15
REMARK    8  A    between atoms: C_14  and  N_16
REMARK    9  A    between atoms: N_16  and  C_17
REMARK   10  A    between atoms: N_16  and  C_18
REMARK                            x       y       z     vdW  Elec       q    Type
REMARK                         _______ _______ _______ _____ _____    ______ ____
ROOT
ATOM      1  C   UNL     1      50.174 161.846  41.706  0.00  0.00    +0.134 A 
ATOM      2  C   UNL     1      48.967 161.937  41.020  0.00  0.00    +0.046 A 
ATOM      3  C   UNL     1      48.255 160.773  40.747  0.00  0.00    +0.004 A 
ATOM      4  C   UNL     1      48.755 159.529  41.151  0.00  0.00    +0.005 A 
ATOM      5  C   UNL     1      49.979 159.427  41.836  0.00  0.00    -0.027 A 
ATOM      6  C   UNL     1      50.692 160.612  42.096  0.00  0.00    +0.051 A 
ENDROOT
BRANCH   5   7
ATOM      7  C   UNL     1      50.580 158.097  42.296  0.00  0.00    +0.083 C 
ATOM      8  C   UNL     1      51.968 158.220  42.952  0.00  0.00    +0.029 C 
BRANCH   7   9
ATOM      9  N   UNL     1      49.593 157.317  43.078  0.00  0.00    -0.302 NA
ATOM     10  C   UNL     1      49.666 157.539  44.521  0.00  0.00    +0.105 C 
ATOM     11  C   UNL     1      49.640 155.888  42.776  0.00  0.00    +0.105 C 
ENDBRANCH   7   9
ENDBRANCH   5   7
BRANCH   1  12
ATOM     12  O   UNL     1      50.948 162.987  41.942  0.00  0.00    -0.411 OA
BRANCH  12  15
ATOM     13  N   UNL     1      50.293 165.181  41.606  0.00  0.00    -0.270 N 
ATOM     14  C   UNL     1      50.836 165.098  40.260  0.00  0.00    +0.135 C 
ATOM     15  C   UNL     1      50.260 164.081  42.460  0.00  0.00    +0.408 C 
ATOM     16  O   UNL     1      49.680 164.089  43.542  0.00  0.00    -0.226 OA
BRANCH  13  18
ATOM     17  C   UNL     1      48.062 166.227  41.361  0.00  0.00    +0.024 C 
ATOM     18  C   UNL     1      49.467 166.337  41.933  0.00  0.00    +0.107 C 
ENDBRANCH  13  18
ENDBRANCH  12  15
ENDBRANCH   1  12
TORSDOF 5
ENDMDL
MODEL 8
REMARK VINA RESULT:    -6.242      2.130      3.170
REMARK INTER + INTRA:          -8.255
REMARK INTER:                  -7.804
REMARK INTRA:                  -0.451
REMARK UNBOUND:                -0.188
REMARK  Name = 
REMARK  10 active torsions:
REMARK  status: ('A' for Active; 'I' for Inactive)
REMARK    1  A    between atoms: C_1  and  C_2
REMARK    2  A    between atoms: C_2  and  N_3
REMARK    3  A    between atoms: N_3  and  C_4
REMARK    4  A    between atoms: C_5  and  O_7
REMARK    5  A    between atoms: O_7  and  C_8
REMARK    6  A    between atoms: C_12  and  C_14
REMARK    7  A    between atoms: C_14  and  C_15
REMARK    8  A    between atoms: C_14  and  N_16
REMARK    9  A    between atoms: N_16  and  C_17
REMARK   10  A    between atoms: N_16  and  C_18
REMARK                            x       y       z     vdW  Elec       q    Type
REMARK                         _______ _______ _______ _____ _____    ______ ____
ROOT
ATOM      1  C   UNL     1      48.826 160.464  42.417  0.00  0.00    +0.134 A 
ATOM      2  C   UNL     1      47.485 160.520  42.048  0.00  0.00    +0.046 A 
ATOM      3  C   UNL     1      47.033 161.606  41.304  0.00  0.00    +0.004 A 
ATOM      4  C   UNL     1      47.916 162.631  40.943  0.00  0.00    +0.005 A 
ATOM      5  C   UNL     1      49.270 162.588  41.321  0.00  0.00    -0.027 A 
ATOM      6  C   UNL     1      49.711 161.487  42.080  0.00  0.00    +0.051 A 
ENDROOT
BRANCH   5   7
ATOM      7  C   UNL     1      50.282 163.679  40.962  0.00  0.00    +0.083 C 
ATOM      8  C   UNL     1      49.682 164.874  40.197  0.00  0.00    +0.029 C 
BRANCH   7   9
ATOM      9  N   UNL     1      51.099 164.046  42.141  0.00  0.00    -0.302 NA
ATOM     10  C   UNL     1      50.590 165.197  42.885  0.00  0.00    +0.105 C 
ATOM     11  C   UNL     1      52.510 164.232  41.810  0.00  0.00    +0.105 C 
ENDBRANCH   7   9
ENDBRANCH   5   7
BRANCH   1  12
ATOM     12  O   UNL     1      49.302 159.422  43.217  0.00  0.00    -0.411 OA
BRANCH  12  15
ATOM     13  N   UNL     1      49.254 157.121  43.468  0.00  0.00    -0.270 N 
ATOM     14  C   UNL     1      48.827 157.318  44.844  0.00  0.00    +0.135 C 
ATOM     15  C   UNL     1      49.420 158.187  42.585  0.00  0.00    +0.408 C 
ATOM     16  O   UNL     1      49.639 158.036  41.386  0.00  0.00    -0.226 OA
BRANCH  13  18
ATOM     17  C   UNL     1      49.543 154.708  43.940  0.00  0.00    +0.024 C 
ATOM     18  C   UNL     1      49.173 155.773  42.919  0.00  0.00    +0.107 C 
ENDBRANCH  13  18
ENDBRANCH  12  15
ENDBRANCH   1  12
TORSDOF 5
ENDMDL
MODEL 9
REMARK VINA RESULT:    -6.239      2.648      4.089
REMARK INTER + INTRA:          -8.252
REMARK INTER:                  -7.758
REMARK INTRA:                  -0.494
REMARK UNBOUND:                -0.188
REMARK  Name = 
REMARK  10 active torsions:
REMARK  status: ('A' for Active; 'I' for Inactive)
REMARK    1  A    between atoms: C_1  and  C_2
REMARK    2  A    between atoms: C_2  and  N_3
REMARK    3  A    between atoms: N_3  and  C_4
REMARK    4  A    between atoms: C_5  and  O_7
REMARK    5  A    between atoms: O_7  and  C_8
REMARK    6  A    between atoms: C_12  and  C_14
REMARK    7  A    between atoms: C_14  and  C_15
REMARK    8  A    between atoms: C_14  and  N_16
REMARK    9  A    between atoms: N_16  and  C_17
REMARK   10  A    between atoms: N_16  and  C_18
REMARK                            x       y       z     vdW  Elec       q    Type
REMARK                         _______ _______ _______ _____ _____    ______ ____
ROOT
ATOM      1  C   UNL     1      48.784 161.326  40.911  0.00  0.00    +0.134 A 
ATOM      2  C   UNL     1      47.593 161.713  40.304  0.00  0.00    +0.046 A 
ATOM      3  C   UNL     1      47.245 163.061  40.298  0.00  0.00    +0.004 A 
ATOM      4  C   UNL     1      48.078 164.008  40.905  0.00  0.00    +0.005 A 
ATOM      5  C   UNL     1      49.278 163.624  41.530  0.00  0.00    -0.027 A 
ATOM      6  C   UNL     1      49.613 162.257  41.535  0.00  0.00    +0.051 A 
ENDROOT
BRANCH   5   7
ATOM      7  C   UNL     1      50.226 164.611  42.215  0.00  0.00    +0.083 C 
ATOM      8  C   UNL     1      50.102 164.651  43.749  0.00  0.00    +0.029 C 
BRANCH   7   9
ATOM      9  N   UNL     1      51.609 164.448  41.709  0.00  0.00    -0.302 NA
ATOM     10  C   UNL     1      52.642 164.658  42.722  0.00  0.00    +0.105 C 
ATOM     11  C   UNL     1      51.875 165.265  40.528  0.00  0.00    +0.105 C 
ENDBRANCH   7   9
ENDBRANCH   5   7
BRANCH   1  12
ATOM     12  O   UNL     1      49.136 159.976  40.992  0.00  0.00    -0.411 OA
BRANCH  12  15
ATOM     13  N   UNL     1      49.709 158.694  42.832  0.00  0.00    -0.270 N 
ATOM     14  C   UNL     1      51.108 158.913  42.503  0.00  0.00    +0.135 C 
ATOM     15  C   UNL     1      48.677 159.302  42.121  0.00  0.00    +0.408 C 
ATOM     16  O   UNL     1      47.500 159.248  42.468  0.00  0.00    -0.226 OA
BRANCH  13  18
ATOM     17  C   UNL     1      49.127 156.612  44.040  0.00  0.00    +0.024 C 
ATOM     18  C   UNL     1      49.402 158.105  44.131  0.00  0.00    +0.107 C 
ENDBRANCH  13  18
ENDBRANCH  12  15
ENDBRANCH   1  12
TORSDOF 5
ENDMDL
