MODEL 1
REMARK VINA RESULT:    -8.920      0.000      0.000
REMARK INTER + INTRA:         -16.589
REMARK INTER:                 -14.657
REMARK INTRA:                  -1.932
REMARK UNBOUND:                -1.932
REMARK  Name = 
REMARK  17 active torsions:
REMARK  status: ('A' for Active; 'I' for Inactive)
REMARK    1  A    between atoms: C_1  and  C_2
REMARK    2  A    between atoms: C_3  and  O_43
REMARK    3  A    between atoms: C_4  and  O_42
REMARK    4  A    between atoms: C_5  and  O_41
REMARK    5  A    between atoms: C_6  and  O_8
REMARK    6  A    between atoms: O_8  and  C_9
REMARK    7  A    between atoms: C_9  and  C_10
REMARK    8  A    between atoms: C_11  and  O_40
REMARK    9  A    between atoms: C_12  and  O_39
REMARK   10  A    between atoms: C_13  and  O_38
REMARK   11  A    between atoms: C_14  and  O_16
REMARK   12  A    between atoms: O_16  and  C_17
REMARK   13  A    between atoms: C_18  and  C_30
REMARK   14  A    between atoms: C_22  and  O_29
REMARK   15  A    between atoms: C_24  and  O_28
REMARK   16  A    between atoms: C_32  and  O_37
REMARK   17  A    between atoms: C_33  and  O_36
REMARK                            x       y       z     vdW  Elec       q    Type
REMARK                         _______ _______ _______ _____ _____    ______ ____
ROOT
ATOM      1  C   UNL     1      55.391 163.043  41.150  0.00  0.00    +0.179 C 
ATOM      2  C   UNL     1      54.739 164.262  41.827  0.00  0.00    +0.177 C 
ATOM      3  C   UNL     1      53.730 164.915  40.875  0.00  0.00    +0.180 C 
ATOM      4  C   UNL     1      52.984 163.890  40.007  0.00  0.00    +0.214 C 
ATOM      5  C   UNL     1      53.088 162.473  40.601  0.00  0.00    +0.340 C 
ATOM      6  O   UNL     1      54.440 162.037  40.751  0.00  0.00    -0.331 OA
ENDROOT
BRANCH   2   7
ATOM      7  O   UNL     1      55.692 165.242  42.239  0.00  0.00    -0.386 OA
ATOM      8  H   UNL     1      56.271 164.796  42.887  0.00  0.00    +0.210 HD
ENDBRANCH   2   7
BRANCH   3   9
ATOM      9  O   UNL     1      52.814 165.703  41.657  0.00  0.00    -0.386 OA
ATOM     10  H   UNL     1      53.241 166.585  41.720  0.00  0.00    +0.210 HD
ENDBRANCH   3   9
BRANCH   4  11
ATOM     11  O   UNL     1      51.637 164.347  39.799  0.00  0.00    -0.383 OA
ATOM     12  H   UNL     1      51.032 163.778  40.325  0.00  0.00    +0.210 HD
ENDBRANCH   4  11
BRANCH   5  13
ATOM     13  O   UNL     1      52.424 162.437  41.873  0.00  0.00    -0.453 OA
BRANCH  13  14
ATOM     14  C   UNL     1      51.649 161.306  42.036  0.00  0.00    +0.214 A 
ATOM     15  C   UNL     1      50.310 161.305  41.903  0.00  0.00    +0.181 A 
ATOM     16  O   UNL     1      49.505 160.189  42.055  0.00  0.00    -0.451 OA
ATOM     17  C   UNL     1      50.103 158.977  42.289  0.00  0.00    +0.147 A 
ATOM     18  C   UNL     1      49.263 157.869  42.396  0.00  0.00    +0.092 A 
ATOM     19  C   UNL     1      49.811 156.612  42.636  0.00  0.00    +0.124 A 
ATOM     20  C   UNL     1      51.186 156.444  42.771  0.00  0.00    +0.091 A 
ATOM     21  C   UNL     1      52.021 157.555  42.663  0.00  0.00    +0.135 A 
ATOM     22  C   UNL     1      51.481 158.823  42.422  0.00  0.00    +0.109 A 
ATOM     23  C   UNL     1      52.329 160.015  42.312  0.00  0.00    +0.238 A 
ATOM     24  O   UNL     1      53.549 159.946  42.457  0.00  0.00    -0.283 OA
BRANCH  15  25
ATOM     25  C   UNL     1      49.550 162.538  41.627  0.00  0.00    +0.025 A 
ATOM     26  C   UNL     1      48.630 162.563  40.565  0.00  0.00    +0.060 A 
ATOM     27  C   UNL     1      47.912 163.726  40.310  0.00  0.00    +0.159 A 
ATOM     28  C   UNL     1      48.105 164.862  41.090  0.00  0.00    +0.158 A 
ATOM     29  C   UNL     1      49.013 164.860  42.136  0.00  0.00    +0.050 A 
ATOM     30  C   UNL     1      49.738 163.695  42.404  0.00  0.00    +0.015 A 
BRANCH  27  31
ATOM     31  O   UNL     1      46.991 163.804  39.303  0.00  0.00    -0.503 OA
ATOM     32  H   UNL     1      47.410 163.516  38.474  0.00  0.00    +0.292 HD
ENDBRANCH  27  31
BRANCH  28  33
ATOM     33  O   UNL     1      47.380 165.990  40.830  0.00  0.00    -0.503 OA
ATOM     34  H   UNL     1      47.287 166.425  41.704  0.00  0.00    +0.292 HD
ENDBRANCH  28  33
ENDBRANCH  15  25
BRANCH  19  35
ATOM     35  O   UNL     1      48.955 155.557  42.735  0.00  0.00    -0.507 OA
ATOM     36  H   UNL     1      49.469 154.732  42.753  0.00  0.00    +0.292 HD
ENDBRANCH  19  35
BRANCH  21  37
ATOM     37  O   UNL     1      53.363 157.326  42.808  0.00  0.00    -0.506 OA
ATOM     38  H   UNL     1      53.828 158.192  42.839  0.00  0.00    +0.292 HD
ENDBRANCH  21  37
ENDBRANCH  13  14
ENDBRANCH   5  13
BRANCH   1  39
ATOM     39  C   UNL     1      56.421 162.371  42.073  0.00  0.00    +0.197 C 
BRANCH  39  40
ATOM     40  O   UNL     1      57.543 161.910  41.322  0.00  0.00    -0.346 OA
BRANCH  40  46
ATOM     41  C   UNL     1      58.629 158.020  39.437  0.00  0.00    +0.041 C 
ATOM     42  C   UNL     1      59.140 158.722  40.694  0.00  0.00    +0.149 C 
ATOM     43  C   UNL     1      58.724 157.971  41.976  0.00  0.00    +0.174 C 
ATOM     44  C   UNL     1      57.311 158.316  42.480  0.00  0.00    +0.179 C 
ATOM     45  C   UNL     1      56.793 159.663  41.954  0.00  0.00    +0.201 C 
ATOM     46  C   UNL     1      57.992 160.606  41.712  0.00  0.00    +0.282 C 
ATOM     47  O   UNL     1      58.757 160.101  40.614  0.00  0.00    -0.343 OA
BRANCH  43  48
ATOM     48  O   UNL     1      59.666 158.332  43.007  0.00  0.00    -0.387 OA
ATOM     49  H   UNL     1      59.438 159.224  43.324  0.00  0.00    +0.210 HD
ENDBRANCH  43  48
BRANCH  44  50
ATOM     50  O   UNL     1      56.386 157.253  42.232  0.00  0.00    -0.386 OA
ATOM     51  H   UNL     1      56.040 157.351  41.331  0.00  0.00    +0.210 HD
ENDBRANCH  44  50
BRANCH  45  52
ATOM     52  O   UNL     1      56.035 159.515  40.736  0.00  0.00    -0.384 OA
ATOM     53  H   UNL     1      55.337 160.199  40.771  0.00  0.00    +0.210 HD
ENDBRANCH  45  52
ENDBRANCH  40  46
ENDBRANCH  39  40
ENDBRANCH   1  39
TORSDOF 16
ENDMDL
MODEL 2
REMARK VINA RESULT:    -8.860      2.130      6.725
REMARK INTER + INTRA:         -16.489
REMARK INTER:                 -14.181
REMARK INTRA:                  -2.308
REMARK UNBOUND:                -1.932
REMARK  Name = 
REMARK  17 active torsions:
REMARK  status: ('A' for Active; 'I' for Inactive)
REMARK    1  A    between atoms: C_1  and  C_2
REMARK    2  A    between atoms: C_3  and  O_43
REMARK    3  A    between atoms: C_4  and  O_42
REMARK    4  A    between atoms: C_5  and  O_41
REMARK    5  A    between atoms: C_6  and  O_8
REMARK    6  A    between atoms: O_8  and  C_9
REMARK    7  A    between atoms: C_9  and  C_10
REMARK    8  A    between atoms: C_11  and  O_40
REMARK    9  A    between atoms: C_12  and  O_39
REMARK   10  A    between atoms: C_13  and  O_38
REMARK   11  A    between atoms: C_14  and  O_16
REMARK   12  A    between atoms: O_16  and  C_17
REMARK   13  A    between atoms: C_18  and  C_30
REMARK   14  A    between atoms: C_22  and  O_29
REMARK   15  A    between atoms: C_24  and  O_28
REMARK   16  A    between atoms: C_32  and  O_37
REMARK   17  A    between atoms: C_33  and  O_36
REMARK                            x       y       z     vdW  Elec       q    Type
REMARK                         _______ _______ _______ _____ _____    ______ ____
ROOT
ATOM      1  C   UNL     1      48.279 161.656  41.712  0.00  0.00    +0.179 C 
ATOM      2  C   UNL     1      48.176 162.480  40.416  0.00  0.00    +0.177 C 
ATOM      3  C   UNL     1      48.081 163.974  40.748  0.00  0.00    +0.180 C 
ATOM      4  C   UNL     1      48.925 164.364  41.970  0.00  0.00    +0.214 C 
ATOM      5  C   UNL     1      49.990 163.295  42.281  0.00  0.00    +0.340 C 
ATOM      6  O   UNL     1      49.420 162.006  42.519  0.00  0.00    -0.331 OA
ENDROOT
BRANCH   2   7
ATOM      7  O   UNL     1      47.055 162.109  39.613  0.00  0.00    -0.386 OA
ATOM      8  H   UNL     1      46.730 162.937  39.210  0.00  0.00    +0.210 HD
ENDBRANCH   2   7
BRANCH   3   9
ATOM      9  O   UNL     1      48.471 164.723  39.582  0.00  0.00    -0.386 OA
ATOM     10  H   UNL     1      49.334 164.335  39.319  0.00  0.00    +0.210 HD
ENDBRANCH   3   9
BRANCH   4  11
ATOM     11  O   UNL     1      49.455 165.685  41.768  0.00  0.00    -0.383 OA
ATOM     12  H   UNL     1      50.402 165.684  42.033  0.00  0.00    +0.210 HD
ENDBRANCH   4  11
BRANCH   5  13
ATOM     13  O   UNL     1      50.923 163.218  41.193  0.00  0.00    -0.453 OA
BRANCH  13  14
ATOM     14  C   UNL     1      52.217 162.994  41.619  0.00  0.00    +0.214 A 
ATOM     15  C   UNL     1      53.116 163.980  41.789  0.00  0.00    +0.181 A 
ATOM     16  O   UNL     1      54.419 163.790  42.219  0.00  0.00    -0.451 OA
ATOM     17  C   UNL     1      54.817 162.524  42.565  0.00  0.00    +0.147 A 
ATOM     18  C   UNL     1      56.123 162.378  43.030  0.00  0.00    +0.092 A 
ATOM     19  C   UNL     1      56.585 161.117  43.396  0.00  0.00    +0.124 A 
ATOM     20  C   UNL     1      55.764 159.997  43.301  0.00  0.00    +0.091 A 
ATOM     21  C   UNL     1      54.459 160.149  42.835  0.00  0.00    +0.135 A 
ATOM     22  C   UNL     1      53.984 161.412  42.466  0.00  0.00    +0.109 A 
ATOM     23  C   UNL     1      52.620 161.607  41.962  0.00  0.00    +0.238 A 
ATOM     24  O   UNL     1      51.851 160.657  41.818  0.00  0.00    -0.283 OA
BRANCH  15  25
ATOM     25  C   UNL     1      52.805 165.387  41.476  0.00  0.00    +0.025 A 
ATOM     26  C   UNL     1      52.652 165.782  40.137  0.00  0.00    +0.060 A 
ATOM     27  C   UNL     1      52.356 167.109  39.845  0.00  0.00    +0.159 A 
ATOM     28  C   UNL     1      52.218 168.044  40.867  0.00  0.00    +0.158 A 
ATOM     29  C   UNL     1      52.372 167.676  42.193  0.00  0.00    +0.050 A 
ATOM     30  C   UNL     1      52.667 166.344  42.498  0.00  0.00    +0.015 A 
BRANCH  27  31
ATOM     31  O   UNL     1      52.179 167.548  38.563  0.00  0.00    -0.503 OA
ATOM     32  H   UNL     1      51.845 168.462  38.590  0.00  0.00    +0.292 HD
ENDBRANCH  27  31
BRANCH  28  33
ATOM     33  O   UNL     1      51.913 169.339  40.559  0.00  0.00    -0.503 OA
ATOM     34  H   UNL     1      52.670 169.856  40.908  0.00  0.00    +0.292 HD
ENDBRANCH  28  33
ENDBRANCH  15  25
BRANCH  19  35
ATOM     35  O   UNL     1      57.868 161.019  43.844  0.00  0.00    -0.507 OA
ATOM     36  H   UNL     1      58.371 160.443  43.243  0.00  0.00    +0.292 HD
ENDBRANCH  19  35
BRANCH  21  37
ATOM     37  O   UNL     1      53.701 159.012  42.763  0.00  0.00    -0.506 OA
ATOM     38  H   UNL     1      52.909 159.125  43.335  0.00  0.00    +0.292 HD
ENDBRANCH  21  37
ENDBRANCH  13  14
ENDBRANCH   5  13
BRANCH   1  39
ATOM     39  C   UNL     1      48.362 160.149  41.416  0.00  0.00    +0.197 C 
BRANCH  39  40
ATOM     40  O   UNL     1      48.058 159.391  42.585  0.00  0.00    -0.346 OA
BRANCH  40  46
ATOM     41  C   UNL     1      49.521 156.296  45.440  0.00  0.00    +0.041 C 
ATOM     42  C   UNL     1      48.825 156.186  44.085  0.00  0.00    +0.149 C 
ATOM     43  C   UNL     1      49.767 155.617  43.003  0.00  0.00    +0.174 C 
ATOM     44  C   UNL     1      50.674 156.669  42.339  0.00  0.00    +0.179 C 
ATOM     45  C   UNL     1      50.141 158.103  42.481  0.00  0.00    +0.201 C 
ATOM     46  C   UNL     1      48.599 158.064  42.560  0.00  0.00    +0.282 C 
ATOM     47  O   UNL     1      48.221 157.453  43.797  0.00  0.00    -0.343 OA
BRANCH  43  48
ATOM     48  O   UNL     1      48.938 155.031  41.979  0.00  0.00    -0.387 OA
ATOM     49  H   UNL     1      49.173 154.089  41.904  0.00  0.00    +0.210 HD
ENDBRANCH  43  48
BRANCH  44  50
ATOM     50  O   UNL     1      52.029 156.554  42.780  0.00  0.00    -0.386 OA
ATOM     51  H   UNL     1      52.207 155.622  42.987  0.00  0.00    +0.210 HD
ENDBRANCH  44  50
BRANCH  45  52
ATOM     52  O   UNL     1      50.674 158.766  43.646  0.00  0.00    -0.384 OA
ATOM     53  H   UNL     1      50.183 158.400  44.408  0.00  0.00    +0.210 HD
ENDBRANCH  45  52
ENDBRANCH  40  46
ENDBRANCH  39  40
ENDBRANCH   1  39
TORSDOF 16
ENDMDL
MODEL 3
REMARK VINA RESULT:    -8.351      2.994      7.397
REMARK INTER + INTRA:         -15.653
REMARK INTER:                 -13.438
REMARK INTRA:                  -2.215
REMARK UNBOUND:                -1.932
REMARK  Name = 
REMARK  17 active torsions:
REMARK  status: ('A' for Active; 'I' for Inactive)
REMARK    1  A    between atoms: C_1  and  C_2
REMARK    2  A    between atoms: C_3  and  O_43
REMARK    3  A    between atoms: C_4  and  O_42
REMARK    4  A    between atoms: C_5  and  O_41
REMARK    5  A    between atoms: C_6  and  O_8
REMARK    6  A    between atoms: O_8  and  C_9
REMARK    7  A    between atoms: C_9  and  C_10
REMARK    8  A    between atoms: C_11  and  O_40
REMARK    9  A    between atoms: C_12  and  O_39
REMARK   10  A    between atoms: C_13  and  O_38
REMARK   11  A    between atoms: C_14  and  O_16
REMARK   12  A    between atoms: O_16  and  C_17
REMARK   13  A    between atoms: C_18  and  C_30
REMARK   14  A    between atoms: C_22  and  O_29
REMARK   15  A    between atoms: C_24  and  O_28
REMARK   16  A    between atoms: C_32  and  O_37
REMARK   17  A    between atoms: C_33  and  O_36
REMARK                            x       y       z     vdW  Elec       q    Type
REMARK                         _______ _______ _______ _____ _____    ______ ____
ROOT
ATOM      1  C   UNL     1      50.898 165.200  41.895  0.00  0.00    +0.179 C 
ATOM      2  C   UNL     1      51.287 165.055  40.413  0.00  0.00    +0.177 C 
ATOM      3  C   UNL     1      52.766 164.668  40.293  0.00  0.00    +0.180 C 
ATOM      4  C   UNL     1      53.226 163.727  41.417  0.00  0.00    +0.214 C 
ATOM      5  C   UNL     1      52.026 163.051  42.107  0.00  0.00    +0.340 C 
ATOM      6  O   UNL     1      51.107 163.996  42.658  0.00  0.00    -0.331 OA
ENDROOT
BRANCH   2   7
ATOM      7  O   UNL     1      51.056 166.247  39.661  0.00  0.00    -0.386 OA
ATOM      8  H   UNL     1      50.195 166.592  39.968  0.00  0.00    +0.210 HD
ENDBRANCH   2   7
BRANCH   3   9
ATOM      9  O   UNL     1      52.976 164.077  38.997  0.00  0.00    -0.386 OA
ATOM     10  H   UNL     1      52.387 163.291  38.988  0.00  0.00    +0.210 HD
ENDBRANCH   3   9
BRANCH   4  11
ATOM     11  O   UNL     1      54.198 162.809  40.888  0.00  0.00    -0.383 OA
ATOM     12  H   UNL     1      54.764 163.291  40.245  0.00  0.00    +0.210 HD
ENDBRANCH   4  11
BRANCH   5  13
ATOM     13  O   UNL     1      51.347 162.206  41.168  0.00  0.00    -0.453 OA
BRANCH  13  14
ATOM     14  C   UNL     1      50.957 161.003  41.722  0.00  0.00    +0.214 A 
ATOM     15  C   UNL     1      49.673 160.690  41.975  0.00  0.00    +0.181 A 
ATOM     16  O   UNL     1      49.249 159.492  42.525  0.00  0.00    -0.451 OA
ATOM     17  C   UNL     1      50.181 158.518  42.772  0.00  0.00    +0.147 A 
ATOM     18  C   UNL     1      49.712 157.311  43.289  0.00  0.00    +0.092 A 
ATOM     19  C   UNL     1      50.611 156.284  43.562  0.00  0.00    +0.124 A 
ATOM     20  C   UNL     1      51.974 156.444  43.328  0.00  0.00    +0.091 A 
ATOM     21  C   UNL     1      52.438 157.653  42.812  0.00  0.00    +0.135 A 
ATOM     22  C   UNL     1      51.543 158.691  42.532  0.00  0.00    +0.109 A 
ATOM     23  C   UNL     1      51.997 159.979  41.998  0.00  0.00    +0.238 A 
ATOM     24  O   UNL     1      53.191 160.203  41.801  0.00  0.00    -0.283 OA
BRANCH  15  25
ATOM     25  C   UNL     1      48.573 161.641  41.731  0.00  0.00    +0.025 A 
ATOM     26  C   UNL     1      48.412 162.202  40.454  0.00  0.00    +0.060 A 
ATOM     27  C   UNL     1      47.371 163.096  40.225  0.00  0.00    +0.159 A 
ATOM     28  C   UNL     1      46.499 163.443  41.253  0.00  0.00    +0.158 A 
ATOM     29  C   UNL     1      46.646 162.906  42.522  0.00  0.00    +0.050 A 
ATOM     30  C   UNL     1      47.686 162.004  42.761  0.00  0.00    +0.015 A 
BRANCH  27  31
ATOM     31  O   UNL     1      47.154 163.661  39.000  0.00  0.00    -0.503 OA
ATOM     32  H   UNL     1      47.583 164.534  38.978  0.00  0.00    +0.292 HD
ENDBRANCH  27  31
BRANCH  28  33
ATOM     33  O   UNL     1      45.475 164.312  41.004  0.00  0.00    -0.503 OA
ATOM     34  H   UNL     1      45.580 164.545  40.058  0.00  0.00    +0.292 HD
ENDBRANCH  28  33
ENDBRANCH  15  25
BRANCH  19  35
ATOM     35  O   UNL     1      50.110 155.122  44.067  0.00  0.00    -0.507 OA
ATOM     36  H   UNL     1      49.816 155.275  44.981  0.00  0.00    +0.292 HD
ENDBRANCH  19  35
BRANCH  21  37
ATOM     37  O   UNL     1      53.788 157.750  42.605  0.00  0.00    -0.506 OA
ATOM     38  H   UNL     1      53.946 157.988  41.665  0.00  0.00    +0.292 HD
ENDBRANCH  21  37
ENDBRANCH  13  14
ENDBRANCH   5  13
BRANCH   1  39
ATOM     39  C   UNL     1      49.422 165.602  42.052  0.00  0.00    +0.197 C 
BRANCH  39  40
ATOM     40  O   UNL     1      49.227 166.959  41.655  0.00  0.00    -0.346 OA
BRANCH  40  46
ATOM     41  C   UNL     1      49.271 171.159  43.143  0.00  0.00    +0.041 C 
ATOM     42  C   UNL     1      48.160 170.114  43.072  0.00  0.00    +0.149 C 
ATOM     43  C   UNL     1      47.738 169.633  44.476  0.00  0.00    +0.174 C 
ATOM     44  C   UNL     1      48.620 168.510  45.051  0.00  0.00    +0.179 C 
ATOM     45  C   UNL     1      49.395 167.738  43.972  0.00  0.00    +0.201 C 
ATOM     46  C   UNL     1      48.587 167.759  42.656  0.00  0.00    +0.282 C 
ATOM     47  O   UNL     1      48.571 169.097  42.151  0.00  0.00    -0.343 OA
BRANCH  43  48
ATOM     48  O   UNL     1      46.389 169.132  44.370  0.00  0.00    -0.387 OA
ATOM     49  H   UNL     1      46.003 169.480  43.546  0.00  0.00    +0.210 HD
ENDBRANCH  43  48
BRANCH  44  50
ATOM     50  O   UNL     1      49.478 168.989  46.089  0.00  0.00    -0.386 OA
ATOM     51  H   UNL     1      49.620 169.941  45.956  0.00  0.00    +0.210 HD
ENDBRANCH  44  50
BRANCH  45  52
ATOM     52  O   UNL     1      50.708 168.292  43.748  0.00  0.00    -0.384 OA
ATOM     53  H   UNL     1      51.327 167.716  44.239  0.00  0.00    +0.210 HD
ENDBRANCH  45  52
ENDBRANCH  40  46
ENDBRANCH  39  40
ENDBRANCH   1  39
TORSDOF 16
ENDMDL
MODEL 4
REMARK VINA RESULT:    -8.299      2.795      8.520
REMARK INTER + INTRA:         -15.567
REMARK INTER:                 -13.865
REMARK INTRA:                  -1.703
REMARK UNBOUND:                -1.932
REMARK  Name = 
REMARK  17 active torsions:
REMARK  status: ('A' for Active; 'I' for Inactive)
REMARK    1  A    between atoms: C_1  and  C_2
REMARK    2  A    between atoms: C_3  and  O_43
REMARK    3  A    between atoms: C_4  and  O_42
REMARK    4  A    between atoms: C_5  and  O_41
REMARK    5  A    between atoms: C_6  and  O_8
REMARK    6  A    between atoms: O_8  and  C_9
REMARK    7  A    between atoms: C_9  and  C_10
REMARK    8  A    between atoms: C_11  and  O_40
REMARK    9  A    between atoms: C_12  and  O_39
REMARK   10  A    between atoms: C_13  and  O_38
REMARK   11  A    between atoms: C_14  and  O_16
REMARK   12  A    between atoms: O_16  and  C_17
REMARK   13  A    between atoms: C_18  and  C_30
REMARK   14  A    between atoms: C_22  and  O_29
REMARK   15  A    between atoms: C_24  and  O_28
REMARK   16  A    between atoms: C_32  and  O_37
REMARK   17  A    between atoms: C_33  and  O_36
REMARK                            x       y       z     vdW  Elec       q    Type
REMARK                         _______ _______ _______ _____ _____    ______ ____
ROOT
ATOM      1  C   UNL     1      52.056 165.675  42.090  0.00  0.00    +0.179 C 
ATOM      2  C   UNL     1      52.884 165.606  40.794  0.00  0.00    +0.177 C 
ATOM      3  C   UNL     1      54.332 165.214  41.115  0.00  0.00    +0.180 C 
ATOM      4  C   UNL     1      54.432 164.211  42.274  0.00  0.00    +0.214 C 
ATOM      5  C   UNL     1      53.083 163.509  42.525  0.00  0.00    +0.340 C 
ATOM      6  O   UNL     1      52.031 164.430  42.815  0.00  0.00    -0.331 OA
ENDROOT
BRANCH   2   7
ATOM      7  O   UNL     1      52.885 166.838  40.072  0.00  0.00    -0.386 OA
ATOM      8  H   UNL     1      52.202 166.742  39.380  0.00  0.00    +0.210 HD
ENDBRANCH   2   7
BRANCH   3   9
ATOM      9  O   UNL     1      54.936 164.691  39.917  0.00  0.00    -0.386 OA
ATOM     10  H   UNL     1      55.528 163.975  40.234  0.00  0.00    +0.210 HD
ENDBRANCH   3   9
BRANCH   4  11
ATOM     11  O   UNL     1      55.527 163.315  42.022  0.00  0.00    -0.383 OA
ATOM     12  H   UNL     1      55.291 162.743  41.257  0.00  0.00    +0.210 HD
ENDBRANCH   4  11
BRANCH   5  13
ATOM     13  O   UNL     1      52.734 162.720  41.378  0.00  0.00    -0.453 OA
BRANCH  13  14
ATOM     14  C   UNL     1      51.963 161.622  41.704  0.00  0.00    +0.214 A 
ATOM     15  C   UNL     1      52.486 160.455  42.125  0.00  0.00    +0.181 A 
ATOM     16  O   UNL     1      51.742 159.338  42.464  0.00  0.00    -0.451 OA
ATOM     17  C   UNL     1      50.374 159.430  42.443  0.00  0.00    +0.147 A 
ATOM     18  C   UNL     1      49.659 158.296  42.829  0.00  0.00    +0.092 A 
ATOM     19  C   UNL     1      48.267 158.328  42.825  0.00  0.00    +0.124 A 
ATOM     20  C   UNL     1      47.577 159.474  42.440  0.00  0.00    +0.091 A 
ATOM     21  C   UNL     1      48.297 160.604  42.054  0.00  0.00    +0.135 A 
ATOM     22  C   UNL     1      49.696 160.584  42.055  0.00  0.00    +0.109 A 
ATOM     23  C   UNL     1      50.486 161.750  41.647  0.00  0.00    +0.238 A 
ATOM     24  O   UNL     1      49.942 162.784  41.259  0.00  0.00    -0.283 OA
BRANCH  15  25
ATOM     25  C   UNL     1      53.941 160.236  42.217  0.00  0.00    +0.025 A 
ATOM     26  C   UNL     1      54.563 160.225  43.476  0.00  0.00    +0.060 A 
ATOM     27  C   UNL     1      55.935 160.015  43.560  0.00  0.00    +0.159 A 
ATOM     28  C   UNL     1      56.692 159.825  42.407  0.00  0.00    +0.158 A 
ATOM     29  C   UNL     1      56.099 159.840  41.156  0.00  0.00    +0.050 A 
ATOM     30  C   UNL     1      54.720 160.047  41.061  0.00  0.00    +0.015 A 
BRANCH  27  31
ATOM     31  O   UNL     1      56.592 159.976  44.757  0.00  0.00    -0.503 OA
ATOM     32  H   UNL     1      56.006 160.331  45.447  0.00  0.00    +0.292 HD
ENDBRANCH  27  31
BRANCH  28  33
ATOM     33  O   UNL     1      58.037 159.606  42.513  0.00  0.00    -0.503 OA
ATOM     34  H   UNL     1      58.129 159.047  43.313  0.00  0.00    +0.292 HD
ENDBRANCH  28  33
ENDBRANCH  15  25
BRANCH  19  35
ATOM     35  O   UNL     1      47.608 157.199  43.209  0.00  0.00    -0.507 OA
ATOM     36  H   UNL     1      46.716 157.440  43.512  0.00  0.00    +0.292 HD
ENDBRANCH  19  35
BRANCH  21  37
ATOM     37  O   UNL     1      47.563 161.698  41.685  0.00  0.00    -0.506 OA
ATOM     38  H   UNL     1      47.611 162.367  42.403  0.00  0.00    +0.292 HD
ENDBRANCH  21  37
ENDBRANCH  13  14
ENDBRANCH   5  13
BRANCH   1  39
ATOM     39  C   UNL     1      50.600 166.079  41.806  0.00  0.00    +0.197 C 
BRANCH  39  40
ATOM     40  O   UNL     1      49.919 166.388  43.022  0.00  0.00    -0.346 OA
BRANCH  40  46
ATOM     41  C   UNL     1      46.980 169.125  44.955  0.00  0.00    +0.041 C 
ATOM     42  C   UNL     1      48.489 169.233  44.744  0.00  0.00    +0.149 C 
ATOM     43  C   UNL     1      48.846 170.346  43.737  0.00  0.00    +0.174 C 
ATOM     44  C   UNL     1      48.772 169.911  42.262  0.00  0.00    +0.179 C 
ATOM     45  C   UNL     1      48.869 168.390  42.074  0.00  0.00    +0.201 C 
ATOM     46  C   UNL     1      49.716 167.792  43.220  0.00  0.00    +0.282 C 
ATOM     47  O   UNL     1      48.986 167.923  44.443  0.00  0.00    -0.343 OA
BRANCH  43  48
ATOM     48  O   UNL     1      50.201 170.756  44.014  0.00  0.00    -0.387 OA
ATOM     49  H   UNL     1      50.171 171.645  44.411  0.00  0.00    +0.210 HD
ENDBRANCH  43  48
BRANCH  44  50
ATOM     50  O   UNL     1      47.627 170.461  41.604  0.00  0.00    -0.386 OA
ATOM     51  H   UNL     1      47.169 169.745  41.135  0.00  0.00    +0.210 HD
ENDBRANCH  44  50
BRANCH  45  52
ATOM     52  O   UNL     1      47.570 167.763  42.048  0.00  0.00    -0.384 OA
ATOM     53  H   UNL     1      47.119 168.052  42.867  0.00  0.00    +0.210 HD
ENDBRANCH  45  52
ENDBRANCH  40  46
ENDBRANCH  39  40
ENDBRANCH   1  39
TORSDOF 16
ENDMDL
MODEL 5
REMARK VINA RESULT:    -8.291      2.808      7.177
REMARK INTER + INTRA:         -15.555
REMARK INTER:                 -13.348
REMARK INTRA:                  -2.207
REMARK UNBOUND:                -1.932
REMARK  Name = 
REMARK  17 active torsions:
REMARK  status: ('A' for Active; 'I' for Inactive)
REMARK    1  A    between atoms: C_1  and  C_2
REMARK    2  A    between atoms: C_3  and  O_43
REMARK    3  A    between atoms: C_4  and  O_42
REMARK    4  A    between atoms: C_5  and  O_41
REMARK    5  A    between atoms: C_6  and  O_8
REMARK    6  A    between atoms: O_8  and  C_9
REMARK    7  A    between atoms: C_9  and  C_10
REMARK    8  A    between atoms: C_11  and  O_40
REMARK    9  A    between atoms: C_12  and  O_39
REMARK   10  A    between atoms: C_13  and  O_38
REMARK   11  A    between atoms: C_14  and  O_16
REMARK   12  A    between atoms: O_16  and  C_17
REMARK   13  A    between atoms: C_18  and  C_30
REMARK   14  A    between atoms: C_22  and  O_29
REMARK   15  A    between atoms: C_24  and  O_28
REMARK   16  A    between atoms: C_32  and  O_37
REMARK   17  A    between atoms: C_33  and  O_36
REMARK                            x       y       z     vdW  Elec       q    Type
REMARK                         _______ _______ _______ _____ _____    ______ ____
ROOT
ATOM      1  C   UNL     1      53.000 161.546  41.332  0.00  0.00    +0.179 C 
ATOM      2  C   UNL     1      54.081 162.597  41.647  0.00  0.00    +0.177 C 
ATOM      3  C   UNL     1      54.135 163.646  40.529  0.00  0.00    +0.180 C 
ATOM      4  C   UNL     1      52.750 163.960  39.943  0.00  0.00    +0.214 C 
ATOM      5  C   UNL     1      51.624 163.507  40.893  0.00  0.00    +0.340 C 
ATOM      6  O   UNL     1      51.683 162.111  41.187  0.00  0.00    -0.331 OA
ENDROOT
BRANCH   2   7
ATOM      7  O   UNL     1      55.378 162.024  41.810  0.00  0.00    -0.386 OA
ATOM      8  H   UNL     1      55.261 161.061  41.698  0.00  0.00    +0.210 HD
ENDBRANCH   2   7
BRANCH   3   9
ATOM      9  O   UNL     1      54.763 164.831  41.052  0.00  0.00    -0.386 OA
ATOM     10  H   UNL     1      54.527 164.834  42.004  0.00  0.00    +0.210 HD
ENDBRANCH   3   9
BRANCH   4  11
ATOM     11  O   UNL     1      52.699 165.352  39.587  0.00  0.00    -0.383 OA
ATOM     12  H   UNL     1      52.402 165.863  40.372  0.00  0.00    +0.210 HD
ENDBRANCH   4  11
BRANCH   5  13
ATOM     13  O   UNL     1      51.693 164.263  42.111  0.00  0.00    -0.453 OA
BRANCH  13  14
ATOM     14  C   UNL     1      50.886 165.383  42.087  0.00  0.00    +0.214 A 
ATOM     15  C   UNL     1      49.543 165.320  42.045  0.00  0.00    +0.181 A 
ATOM     16  O   UNL     1      48.704 166.423  42.025  0.00  0.00    -0.451 OA
ATOM     17  C   UNL     1      49.262 167.671  42.123  0.00  0.00    +0.147 A 
ATOM     18  C   UNL     1      48.384 168.755  42.139  0.00  0.00    +0.092 A 
ATOM     19  C   UNL     1      48.892 170.048  42.235  0.00  0.00    +0.124 A 
ATOM     20  C   UNL     1      50.262 170.277  42.313  0.00  0.00    +0.091 A 
ATOM     21  C   UNL     1      51.135 169.190  42.296  0.00  0.00    +0.135 A 
ATOM     22  C   UNL     1      50.637 167.886  42.201  0.00  0.00    +0.109 A 
ATOM     23  C   UNL     1      51.526 166.720  42.171  0.00  0.00    +0.238 A 
ATOM     24  O   UNL     1      52.749 166.849  42.199  0.00  0.00    -0.283 OA
BRANCH  15  25
ATOM     25  C   UNL     1      48.820 164.037  41.963  0.00  0.00    +0.025 A 
ATOM     26  C   UNL     1      48.180 163.678  40.765  0.00  0.00    +0.060 A 
ATOM     27  C   UNL     1      47.503 162.466  40.689  0.00  0.00    +0.159 A 
ATOM     28  C   UNL     1      47.449 161.616  41.790  0.00  0.00    +0.158 A 
ATOM     29  C   UNL     1      48.067 161.956  42.982  0.00  0.00    +0.050 A 
ATOM     30  C   UNL     1      48.754 163.170  43.069  0.00  0.00    +0.015 A 
BRANCH  27  31
ATOM     31  O   UNL     1      46.876 162.054  39.546  0.00  0.00    -0.503 OA
ATOM     32  H   UNL     1      45.922 162.218  39.638  0.00  0.00    +0.292 HD
ENDBRANCH  27  31
BRANCH  28  33
ATOM     33  O   UNL     1      46.789 160.424  41.690  0.00  0.00    -0.503 OA
ATOM     34  H   UNL     1      46.605 160.329  40.731  0.00  0.00    +0.292 HD
ENDBRANCH  28  33
ENDBRANCH  15  25
BRANCH  19  35
ATOM     35  O   UNL     1      47.999 171.078  42.246  0.00  0.00    -0.507 OA
ATOM     36  H   UNL     1      47.192 170.803  41.778  0.00  0.00    +0.292 HD
ENDBRANCH  19  35
BRANCH  21  37
ATOM     37  O   UNL     1      52.470 169.478  42.374  0.00  0.00    -0.506 OA
ATOM     38  H   UNL     1      52.938 169.002  41.653  0.00  0.00    +0.292 HD
ENDBRANCH  21  37
ENDBRANCH  13  14
ENDBRANCH   5  13
BRANCH   1  39
ATOM     39  C   UNL     1      52.929 160.469  42.427  0.00  0.00    +0.197 C 
BRANCH  39  40
ATOM     40  O   UNL     1      52.336 159.275  41.918  0.00  0.00    -0.346 OA
BRANCH  40  46
ATOM     41  C   UNL     1      49.753 155.651  42.166  0.00  0.00    +0.041 C 
ATOM     42  C   UNL     1      50.555 156.406  43.224  0.00  0.00    +0.149 C 
ATOM     43  C   UNL     1      49.636 157.116  44.239  0.00  0.00    +0.174 C 
ATOM     44  C   UNL     1      49.135 158.497  43.779  0.00  0.00    +0.179 C 
ATOM     45  C   UNL     1      50.012 159.125  42.685  0.00  0.00    +0.201 C 
ATOM     46  C   UNL     1      51.464 158.628  42.855  0.00  0.00    +0.282 C 
ATOM     47  O   UNL     1      51.509 157.232  42.546  0.00  0.00    -0.343 OA
BRANCH  43  48
ATOM     48  O   UNL     1      50.396 157.299  45.451  0.00  0.00    -0.387 OA
ATOM     49  H   UNL     1      49.890 157.889  46.038  0.00  0.00    +0.210 HD
ENDBRANCH  43  48
BRANCH  44  50
ATOM     50  O   UNL     1      47.754 158.463  43.405  0.00  0.00    -0.386 OA
ATOM     51  H   UNL     1      47.447 159.375  43.280  0.00  0.00    +0.210 HD
ENDBRANCH  44  50
BRANCH  45  52
ATOM     52  O   UNL     1      49.538 158.806  41.361  0.00  0.00    -0.384 OA
ATOM     53  H   UNL     1      48.639 158.440  41.481  0.00  0.00    +0.210 HD
ENDBRANCH  45  52
ENDBRANCH  40  46
ENDBRANCH  39  40
ENDBRANCH   1  39
TORSDOF 16
ENDMDL
MODEL 6
REMARK VINA RESULT:    -8.247      1.679      5.729
REMARK INTER + INTRA:         -15.482
REMARK INTER:                 -13.678
REMARK INTRA:                  -1.804
REMARK UNBOUND:                -1.932
REMARK  Name = 
REMARK  17 active torsions:
REMARK  status: ('A' for Active; 'I' for Inactive)
REMARK    1  A    between atoms: C_1  and  C_2
REMARK    2  A    between atoms: C_3  and  O_43
REMARK    3  A    between atoms: C_4  and  O_42
REMARK    4  A    between atoms: C_5  and  O_41
REMARK    5  A    between atoms: C_6  and  O_8
REMARK    6  A    between atoms: O_8  and  C_9
REMARK    7  A    between atoms: C_9  and  C_10
REMARK    8  A    between atoms: C_11  and  O_40
REMARK    9  A    between atoms: C_12  and  O_39
REMARK   10  A    between atoms: C_13  and  O_38
REMARK   11  A    between atoms: C_14  and  O_16
REMARK   12  A    between atoms: O_16  and  C_17
REMARK   13  A    between atoms: C_18  and  C_30
REMARK   14  A    between atoms: C_22  and  O_29
REMARK   15  A    between atoms: C_24  and  O_28
REMARK   16  A    between atoms: C_32  and  O_37
REMARK   17  A    between atoms: C_33  and  O_36
REMARK                            x       y       z     vdW  Elec       q    Type
REMARK                         _______ _______ _______ _____ _____    ______ ____
ROOT
ATOM      1  C   UNL     1      55.995 160.648  42.091  0.00  0.00    +0.179 C 
ATOM      2  C   UNL     1      55.687 159.219  41.610  0.00  0.00    +0.177 C 
ATOM      3  C   UNL     1      55.041 158.411  42.742  0.00  0.00    +0.180 C 
ATOM      4  C   UNL     1      54.111 159.260  43.621  0.00  0.00    +0.214 C 
ATOM      5  C   UNL     1      53.702 160.563  42.907  0.00  0.00    +0.340 C 
ATOM      6  O   UNL     1      54.826 161.362  42.537  0.00  0.00    -0.331 OA
ENDROOT
BRANCH   2   7
ATOM      7  O   UNL     1      56.849 158.528  41.149  0.00  0.00    -0.386 OA
ATOM      8  H   UNL     1      57.549 158.717  41.803  0.00  0.00    +0.210 HD
ENDBRANCH   2   7
BRANCH   3   9
ATOM      9  O   UNL     1      54.339 157.297  42.161  0.00  0.00    -0.386 OA
ATOM     10  H   UNL     1      54.431 156.577  42.821  0.00  0.00    +0.210 HD
ENDBRANCH   3   9
BRANCH   4  11
ATOM     11  O   UNL     1      53.005 158.448  44.050  0.00  0.00    -0.383 OA
ATOM     12  H   UNL     1      52.195 158.756  43.586  0.00  0.00    +0.210 HD
ENDBRANCH   4  11
BRANCH   5  13
ATOM     13  O   UNL     1      52.927 160.246  41.741  0.00  0.00    -0.453 OA
BRANCH  13  14
ATOM     14  C   UNL     1      51.822 161.062  41.601  0.00  0.00    +0.214 A 
ATOM     15  C   UNL     1      50.574 160.672  41.920  0.00  0.00    +0.181 A 
ATOM     16  O   UNL     1      49.446 161.466  41.796  0.00  0.00    -0.451 OA
ATOM     17  C   UNL     1      49.601 162.765  41.387  0.00  0.00    +0.147 A 
ATOM     18  C   UNL     1      48.448 163.545  41.312  0.00  0.00    +0.092 A 
ATOM     19  C   UNL     1      48.542 164.872  40.900  0.00  0.00    +0.124 A 
ATOM     20  C   UNL     1      49.770 165.432  40.560  0.00  0.00    +0.091 A 
ATOM     21  C   UNL     1      50.920 164.648  40.636  0.00  0.00    +0.135 A 
ATOM     22  C   UNL     1      50.837 163.313  41.050  0.00  0.00    +0.109 A 
ATOM     23  C   UNL     1      52.024 162.456  41.132  0.00  0.00    +0.238 A 
ATOM     24  O   UNL     1      53.137 162.874  40.812  0.00  0.00    -0.283 OA
BRANCH  15  25
ATOM     25  C   UNL     1      50.277 159.308  42.396  0.00  0.00    +0.025 A 
ATOM     26  C   UNL     1      50.660 158.204  41.617  0.00  0.00    +0.060 A 
ATOM     27  C   UNL     1      50.382 156.919  42.069  0.00  0.00    +0.159 A 
ATOM     28  C   UNL     1      49.723 156.722  43.279  0.00  0.00    +0.158 A 
ATOM     29  C   UNL     1      49.331 157.798  44.058  0.00  0.00    +0.050 A 
ATOM     30  C   UNL     1      49.608 159.095  43.615  0.00  0.00    +0.015 A 
BRANCH  27  31
ATOM     31  O   UNL     1      50.745 155.806  41.364  0.00  0.00    -0.503 OA
ATOM     32  H   UNL     1      51.394 156.063  40.687  0.00  0.00    +0.292 HD
ENDBRANCH  27  31
BRANCH  28  33
ATOM     33  O   UNL     1      49.471 155.451  43.712  0.00  0.00    -0.503 OA
ATOM     34  H   UNL     1      48.685 155.172  43.198  0.00  0.00    +0.292 HD
ENDBRANCH  28  33
ENDBRANCH  15  25
BRANCH  19  35
ATOM     35  O   UNL     1      47.390 165.598  40.840  0.00  0.00    -0.507 OA
ATOM     36  H   UNL     1      47.170 165.766  39.908  0.00  0.00    +0.292 HD
ENDBRANCH  19  35
BRANCH  21  37
ATOM     37  O   UNL     1      52.096 165.253  40.288  0.00  0.00    -0.506 OA
ATOM     38  H   UNL     1      52.842 164.723  40.647  0.00  0.00    +0.292 HD
ENDBRANCH  21  37
ENDBRANCH  13  14
ENDBRANCH   5  13
BRANCH   1  39
ATOM     39  C   UNL     1      56.657 161.484  40.982  0.00  0.00    +0.197 C 
BRANCH  39  40
ATOM     40  O   UNL     1      58.046 161.665  41.252  0.00  0.00    -0.346 OA
BRANCH  40  46
ATOM     41  C   UNL     1      58.404 158.331  38.316  0.00  0.00    +0.041 C 
ATOM     42  C   UNL     1      58.758 159.814  38.223  0.00  0.00    +0.149 C 
ATOM     43  C   UNL     1      60.284 160.032  38.144  0.00  0.00    +0.174 C 
ATOM     44  C   UNL     1      60.991 160.051  39.511  0.00  0.00    +0.179 C 
ATOM     45  C   UNL     1      60.044 160.365  40.679  0.00  0.00    +0.201 C 
ATOM     46  C   UNL     1      58.894 161.262  40.170  0.00  0.00    +0.282 C 
ATOM     47  O   UNL     1      58.075 160.496  39.282  0.00  0.00    -0.343 OA
BRANCH  43  48
ATOM     48  O   UNL     1      60.501 161.310  37.511  0.00  0.00    -0.387 OA
ATOM     49  H   UNL     1      60.433 162.000  38.195  0.00  0.00    +0.210 HD
ENDBRANCH  43  48
BRANCH  44  50
ATOM     50  O   UNL     1      61.742 158.854  39.736  0.00  0.00    -0.386 OA
ATOM     51  H   UNL     1      61.144 158.095  39.640  0.00  0.00    +0.210 HD
ENDBRANCH  44  50
BRANCH  45  52
ATOM     52  O   UNL     1      59.502 159.167  41.273  0.00  0.00    -0.384 OA
ATOM     53  H   UNL     1      59.354 159.381  42.216  0.00  0.00    +0.210 HD
ENDBRANCH  45  52
ENDBRANCH  40  46
ENDBRANCH  39  40
ENDBRANCH   1  39
TORSDOF 16
ENDMDL
MODEL 7
REMARK VINA RESULT:    -8.241      2.331      4.163
REMARK INTER + INTRA:         -15.473
REMARK INTER:                 -13.262
REMARK INTRA:                  -2.211
REMARK UNBOUND:                -1.932
REMARK  Name = 
REMARK  17 active torsions:
REMARK  status: ('A' for Active; 'I' for Inactive)
REMARK    1  A    between atoms: C_1  and  C_2
REMARK    2  A    between atoms: C_3  and  O_43
REMARK    3  A    between atoms: C_4  and  O_42
REMARK    4  A    between atoms: C_5  and  O_41
REMARK    5  A    between atoms: C_6  and  O_8
REMARK    6  A    between atoms: O_8  and  C_9
REMARK    7  A    between atoms: C_9  and  C_10
REMARK    8  A    between atoms: C_11  and  O_40
REMARK    9  A    between atoms: C_12  and  O_39
REMARK   10  A    between atoms: C_13  and  O_38
REMARK   11  A    between atoms: C_14  and  O_16
REMARK   12  A    between atoms: O_16  and  C_17
REMARK   13  A    between atoms: C_18  and  C_30
REMARK   14  A    between atoms: C_22  and  O_29
REMARK   15  A    between atoms: C_24  and  O_28
REMARK   16  A    between atoms: C_32  and  O_37
REMARK   17  A    between atoms: C_33  and  O_36
REMARK                            x       y       z     vdW  Elec       q    Type
REMARK                         _______ _______ _______ _____ _____    ______ ____
ROOT
ATOM      1  C   UNL     1      57.059 162.301  42.001  0.00  0.00    +0.179 C 
ATOM      2  C   UNL     1      57.288 160.778  42.018  0.00  0.00    +0.177 C 
ATOM      3  C   UNL     1      56.829 160.193  43.359  0.00  0.00    +0.180 C 
ATOM      4  C   UNL     1      55.587 160.899  43.922  0.00  0.00    +0.214 C 
ATOM      5  C   UNL     1      54.849 161.691  42.825  0.00  0.00    +0.340 C 
ATOM      6  O   UNL     1      55.681 162.671  42.202  0.00  0.00    -0.331 OA
ENDROOT
BRANCH   2   7
ATOM      7  O   UNL     1      58.652 160.422  41.796  0.00  0.00    -0.386 OA
ATOM      8  H   UNL     1      59.165 160.885  42.486  0.00  0.00    +0.210 HD
ENDBRANCH   2   7
BRANCH   3   9
ATOM      9  O   UNL     1      56.594 158.784  43.181  0.00  0.00    -0.386 OA
ATOM     10  H   UNL     1      56.669 158.643  42.212  0.00  0.00    +0.210 HD
ENDBRANCH   3   9
BRANCH   4  11
ATOM     11  O   UNL     1      54.770 159.933  44.605  0.00  0.00    -0.383 OA
ATOM     12  H   UNL     1      55.033 159.918  45.552  0.00  0.00    +0.210 HD
ENDBRANCH   4  11
BRANCH   5  13
ATOM     13  O   UNL     1      54.345 160.783  41.836  0.00  0.00    -0.453 OA
BRANCH  13  14
ATOM     14  C   UNL     1      53.034 160.418  42.069  0.00  0.00    +0.214 A 
ATOM     15  C   UNL     1      51.996 161.259  41.904  0.00  0.00    +0.181 A 
ATOM     16  O   UNL     1      50.670 160.925  42.125  0.00  0.00    -0.451 OA
ATOM     17  C   UNL     1      50.369 159.632  42.469  0.00  0.00    +0.147 A 
ATOM     18  C   UNL     1      49.021 159.323  42.645  0.00  0.00    +0.092 A 
ATOM     19  C   UNL     1      48.653 158.028  42.997  0.00  0.00    +0.124 A 
ATOM     20  C   UNL     1      49.612 157.035  43.180  0.00  0.00    +0.091 A 
ATOM     21  C   UNL     1      50.958 157.349  43.004  0.00  0.00    +0.135 A 
ATOM     22  C   UNL     1      51.339 158.648  42.648  0.00  0.00    +0.109 A 
ATOM     23  C   UNL     1      52.747 159.017  42.464  0.00  0.00    +0.238 A 
ATOM     24  O   UNL     1      53.649 158.199  42.645  0.00  0.00    -0.283 OA
BRANCH  15  25
ATOM     25  C   UNL     1      52.184 162.668  41.511  0.00  0.00    +0.025 A 
ATOM     26  C   UNL     1      52.606 162.974  40.207  0.00  0.00    +0.060 A 
ATOM     27  C   UNL     1      52.779 164.304  39.839  0.00  0.00    +0.159 A 
ATOM     28  C   UNL     1      52.545 165.327  40.753  0.00  0.00    +0.158 A 
ATOM     29  C   UNL     1      52.136 165.045  42.046  0.00  0.00    +0.050 A 
ATOM     30  C   UNL     1      51.955 163.712  42.426  0.00  0.00    +0.015 A 
BRANCH  27  31
ATOM     31  O   UNL     1      53.171 164.664  38.580  0.00  0.00    -0.503 OA
ATOM     32  H   UNL     1      53.689 165.485  38.638  0.00  0.00    +0.292 HD
ENDBRANCH  27  31
BRANCH  28  33
ATOM     33  O   UNL     1      52.708 166.627  40.367  0.00  0.00    -0.503 OA
ATOM     34  H   UNL     1      52.505 167.146  41.174  0.00  0.00    +0.292 HD
ENDBRANCH  28  33
ENDBRANCH  15  25
BRANCH  19  35
ATOM     35  O   UNL     1      47.325 157.769  43.159  0.00  0.00    -0.507 OA
ATOM     36  H   UNL     1      46.829 158.603  43.089  0.00  0.00    +0.292 HD
ENDBRANCH  19  35
BRANCH  21  37
ATOM     37  O   UNL     1      51.853 156.332  43.199  0.00  0.00    -0.506 OA
ATOM     38  H   UNL     1      51.496 155.726  43.885  0.00  0.00    +0.292 HD
ENDBRANCH  21  37
ENDBRANCH  13  14
ENDBRANCH   5  13
BRANCH   1  39
ATOM     39  C   UNL     1      57.521 162.924  40.673  0.00  0.00    +0.197 C 
BRANCH  39  40
ATOM     40  O   UNL     1      58.945 162.965  40.607  0.00  0.00    -0.346 OA
BRANCH  40  46
ATOM     41  C   UNL     1      59.257 159.158  38.310  0.00  0.00    +0.041 C 
ATOM     42  C   UNL     1      59.125 160.612  37.861  0.00  0.00    +0.149 C 
ATOM     43  C   UNL     1      60.413 161.117  37.177  0.00  0.00    +0.174 C 
ATOM     44  C   UNL     1      61.491 161.621  38.153  0.00  0.00    +0.179 C 
ATOM     45  C   UNL     1      60.928 162.009  39.529  0.00  0.00    +0.201 C 
ATOM     46  C   UNL     1      59.471 162.492  39.361  0.00  0.00    +0.282 C 
ATOM     47  O   UNL     1      58.661 161.377  38.980  0.00  0.00    -0.343 OA
BRANCH  43  48
ATOM     48  O   UNL     1      60.039 162.215  36.319  0.00  0.00    -0.387 OA
ATOM     49  H   UNL     1      59.070 162.304  36.348  0.00  0.00    +0.210 HD
ENDBRANCH  43  48
BRANCH  44  50
ATOM     50  O   UNL     1      62.581 160.701  38.259  0.00  0.00    -0.386 OA
ATOM     51  H   UNL     1      63.368 161.190  38.550  0.00  0.00    +0.210 HD
ENDBRANCH  44  50
BRANCH  45  52
ATOM     52  O   UNL     1      60.974 160.910  40.462  0.00  0.00    -0.384 OA
ATOM     53  H   UNL     1      60.399 160.215  40.084  0.00  0.00    +0.210 HD
ENDBRANCH  45  52
ENDBRANCH  40  46
ENDBRANCH  39  40
ENDBRANCH   1  39
TORSDOF 16
ENDMDL
MODEL 8
REMARK VINA RESULT:    -8.202      3.436      7.094
REMARK INTER + INTRA:         -15.408
REMARK INTER:                 -12.545
REMARK INTRA:                  -2.863
REMARK UNBOUND:                -1.932
REMARK  Name = 
REMARK  17 active torsions:
REMARK  status: ('A' for Active; 'I' for Inactive)
REMARK    1  A    between atoms: C_1  and  C_2
REMARK    2  A    between atoms: C_3  and  O_43
REMARK    3  A    between atoms: C_4  and  O_42
REMARK    4  A    between atoms: C_5  and  O_41
REMARK    5  A    between atoms: C_6  and  O_8
REMARK    6  A    between atoms: O_8  and  C_9
REMARK    7  A    between atoms: C_9  and  C_10
REMARK    8  A    between atoms: C_11  and  O_40
REMARK    9  A    between atoms: C_12  and  O_39
REMARK   10  A    between atoms: C_13  and  O_38
REMARK   11  A    between atoms: C_14  and  O_16
REMARK   12  A    between atoms: O_16  and  C_17
REMARK   13  A    between atoms: C_18  and  C_30
REMARK   14  A    between atoms: C_22  and  O_29
REMARK   15  A    between atoms: C_24  and  O_28
REMARK   16  A    between atoms: C_32  and  O_37
REMARK   17  A    between atoms: C_33  and  O_36
REMARK                            x       y       z     vdW  Elec       q    Type
REMARK                         _______ _______ _______ _____ _____    ______ ____
ROOT
ATOM      1  C   UNL     1      49.505 166.347  40.792  0.00  0.00    +0.179 C 
ATOM      2  C   UNL     1      48.187 165.945  41.479  0.00  0.00    +0.177 C 
ATOM      3  C   UNL     1      47.434 164.927  40.614  0.00  0.00    +0.180 C 
ATOM      4  C   UNL     1      48.375 163.957  39.883  0.00  0.00    +0.214 C 
ATOM      5  C   UNL     1      49.773 163.941  40.530  0.00  0.00    +0.340 C 
ATOM      6  O   UNL     1      50.384 165.232  40.549  0.00  0.00    -0.331 OA
ENDROOT
BRANCH   2   7
ATOM      7  O   UNL     1      47.334 167.060  41.735  0.00  0.00    -0.386 OA
ATOM      8  H   UNL     1      47.915 167.845  41.739  0.00  0.00    +0.210 HD
ENDBRANCH   2   7
BRANCH   3   9
ATOM      9  O   UNL     1      46.503 164.220  41.454  0.00  0.00    -0.386 OA
ATOM     10  H   UNL     1      45.691 164.141  40.907  0.00  0.00    +0.210 HD
ENDBRANCH   3   9
BRANCH   4  11
ATOM     11  O   UNL     1      47.745 162.667  39.804  0.00  0.00    -0.383 OA
ATOM     12  H   UNL     1      48.289 162.091  39.223  0.00  0.00    +0.210 HD
ENDBRANCH   4  11
BRANCH   5  13
ATOM     13  O   UNL     1      49.676 163.430  41.868  0.00  0.00    -0.453 OA
BRANCH  13  14
ATOM     14  C   UNL     1      50.109 162.123  41.969  0.00  0.00    +0.214 A 
ATOM     15  C   UNL     1      51.402 161.765  41.857  0.00  0.00    +0.181 A 
ATOM     16  O   UNL     1      51.869 160.465  41.958  0.00  0.00    -0.451 OA
ATOM     17  C   UNL     1      50.977 159.469  42.261  0.00  0.00    +0.147 A 
ATOM     18  C   UNL     1      51.491 158.180  42.393  0.00  0.00    +0.092 A 
ATOM     19  C   UNL     1      50.633 157.127  42.698  0.00  0.00    +0.124 A 
ATOM     20  C   UNL     1      49.268 157.340  42.871  0.00  0.00    +0.091 A 
ATOM     21  C   UNL     1      48.760 158.631  42.737  0.00  0.00    +0.135 A 
ATOM     22  C   UNL     1      49.613 159.697  42.432  0.00  0.00    +0.109 A 
ATOM     23  C   UNL     1      49.111 161.067  42.274  0.00  0.00    +0.238 A 
ATOM     24  O   UNL     1      47.912 161.323  42.377  0.00  0.00    -0.283 OA
BRANCH  15  25
ATOM     25  C   UNL     1      52.462 162.744  41.558  0.00  0.00    +0.025 A 
ATOM     26  C   UNL     1      53.038 163.484  42.603  0.00  0.00    +0.060 A 
ATOM     27  C   UNL     1      54.041 164.405  42.318  0.00  0.00    +0.159 A 
ATOM     28  C   UNL     1      54.469 164.601  41.008  0.00  0.00    +0.158 A 
ATOM     29  C   UNL     1      53.908 163.886  39.963  0.00  0.00    +0.050 A 
ATOM     30  C   UNL     1      52.902 162.956  40.238  0.00  0.00    +0.015 A 
BRANCH  27  31
ATOM     31  O   UNL     1      54.651 165.141  43.295  0.00  0.00    -0.503 OA
ATOM     32  H   UNL     1      55.456 164.676  43.580  0.00  0.00    +0.292 HD
ENDBRANCH  27  31
BRANCH  28  33
ATOM     33  O   UNL     1      55.465 165.500  40.752  0.00  0.00    -0.503 OA
ATOM     34  H   UNL     1      54.991 166.317  40.488  0.00  0.00    +0.292 HD
ENDBRANCH  28  33
ENDBRANCH  15  25
BRANCH  19  35
ATOM     35  O   UNL     1      51.177 155.883  42.818  0.00  0.00    -0.507 OA
ATOM     36  H   UNL     1      51.718 155.697  42.031  0.00  0.00    +0.292 HD
ENDBRANCH  19  35
BRANCH  21  37
ATOM     37  O   UNL     1      47.411 158.778  42.917  0.00  0.00    -0.506 OA
ATOM     38  H   UNL     1      47.119 158.163  43.626  0.00  0.00    +0.292 HD
ENDBRANCH  21  37
ENDBRANCH  13  14
ENDBRANCH   5  13
BRANCH   1  39
ATOM     39  C   UNL     1      50.281 167.379  41.628  0.00  0.00    +0.197 C 
BRANCH  39  40
ATOM     40  O   UNL     1      51.296 166.739  42.400  0.00  0.00    -0.346 OA
BRANCH  40  46
ATOM     41  C   UNL     1      52.704 165.184  46.332  0.00  0.00    +0.041 C 
ATOM     42  C   UNL     1      52.543 166.605  45.796  0.00  0.00    +0.149 C 
ATOM     43  C   UNL     1      51.406 167.362  46.515  0.00  0.00    +0.174 C 
ATOM     44  C   UNL     1      50.005 167.093  45.937  0.00  0.00    +0.179 C 
ATOM     45  C   UNL     1      50.035 166.566  44.495  0.00  0.00    +0.201 C 
ATOM     46  C   UNL     1      51.287 167.121  43.781  0.00  0.00    +0.282 C 
ATOM     47  O   UNL     1      52.449 166.528  44.368  0.00  0.00    -0.343 OA
BRANCH  43  48
ATOM     48  O   UNL     1      51.680 168.771  46.383  0.00  0.00    -0.387 OA
ATOM     49  H   UNL     1      52.236 169.042  47.136  0.00  0.00    +0.210 HD
ENDBRANCH  43  48
BRANCH  44  50
ATOM     50  O   UNL     1      49.229 166.254  46.798  0.00  0.00    -0.386 OA
ATOM     51  H   UNL     1      48.860 166.802  47.510  0.00  0.00    +0.210 HD
ENDBRANCH  44  50
BRANCH  45  52
ATOM     52  O   UNL     1      50.043 165.124  44.444  0.00  0.00    -0.384 OA
ATOM     53  H   UNL     1      50.887 164.848  44.854  0.00  0.00    +0.210 HD
ENDBRANCH  45  52
ENDBRANCH  40  46
ENDBRANCH  39  40
ENDBRANCH   1  39
TORSDOF 16
ENDMDL
MODEL 9
REMARK VINA RESULT:    -8.144      3.148      8.061
REMARK INTER + INTRA:         -15.314
REMARK INTER:                 -12.410
REMARK INTRA:                  -2.904
REMARK UNBOUND:                -1.932
REMARK  Name = 
REMARK  17 active torsions:
REMARK  status: ('A' for Active; 'I' for Inactive)
REMARK    1  A    between atoms: C_1  and  C_2
REMARK    2  A    between atoms: C_3  and  O_43
REMARK    3  A    between atoms: C_4  and  O_42
REMARK    4  A    between atoms: C_5  and  O_41
REMARK    5  A    between atoms: C_6  and  O_8
REMARK    6  A    between atoms: O_8  and  C_9
REMARK    7  A    between atoms: C_9  and  C_10
REMARK    8  A    between atoms: C_11  and  O_40
REMARK    9  A    between atoms: C_12  and  O_39
REMARK   10  A    between atoms: C_13  and  O_38
REMARK   11  A    between atoms: C_14  and  O_16
REMARK   12  A    between atoms: O_16  and  C_17
REMARK   13  A    between atoms: C_18  and  C_30
REMARK   14  A    between atoms: C_22  and  O_29
REMARK   15  A    between atoms: C_24  and  O_28
REMARK   16  A    between atoms: C_32  and  O_37
REMARK   17  A    between atoms: C_33  and  O_36
REMARK                            x       y       z     vdW  Elec       q    Type
REMARK                         _______ _______ _______ _____ _____    ______ ____
ROOT
ATOM      1  C   UNL     1      48.957 165.430  40.164  0.00  0.00    +0.179 C 
ATOM      2  C   UNL     1      47.794 165.164  41.137  0.00  0.00    +0.177 C 
ATOM      3  C   UNL     1      46.896 164.048  40.590  0.00  0.00    +0.180 C 
ATOM      4  C   UNL     1      47.687 162.959  39.850  0.00  0.00    +0.214 C 
ATOM      5  C   UNL     1      49.183 163.006  40.218  0.00  0.00    +0.340 C 
ATOM      6  O   UNL     1      49.780 164.271  39.930  0.00  0.00    -0.331 OA
ENDROOT
BRANCH   2   7
ATOM      7  O   UNL     1      46.999 166.325  41.379  0.00  0.00    -0.386 OA
ATOM      8  H   UNL     1      47.273 166.981  40.708  0.00  0.00    +0.210 HD
ENDBRANCH   2   7
BRANCH   3   9
ATOM      9  O   UNL     1      46.144 163.495  41.685  0.00  0.00    -0.386 OA
ATOM     10  H   UNL     1      46.335 162.533  41.653  0.00  0.00    +0.210 HD
ENDBRANCH   3   9
BRANCH   4  11
ATOM     11  O   UNL     1      47.060 161.687  40.083  0.00  0.00    -0.383 OA
ATOM     12  H   UNL     1      46.463 161.773  40.860  0.00  0.00    +0.210 HD
ENDBRANCH   4  11
BRANCH   5  13
ATOM     13  O   UNL     1      49.342 162.700  41.611  0.00  0.00    -0.453 OA
BRANCH  13  14
ATOM     14  C   UNL     1      50.172 161.618  41.826  0.00  0.00    +0.214 A 
ATOM     15  C   UNL     1      51.515 161.705  41.800  0.00  0.00    +0.181 A 
ATOM     16  O   UNL     1      52.376 160.642  42.014  0.00  0.00    -0.451 OA
ATOM     17  C   UNL     1      51.843 159.424  42.346  0.00  0.00    +0.147 A 
ATOM     18  C   UNL     1      52.742 158.387  42.594  0.00  0.00    +0.092 A 
ATOM     19  C   UNL     1      52.260 157.126  42.933  0.00  0.00    +0.124 A 
ATOM     20  C   UNL     1      50.892 156.882  43.028  0.00  0.00    +0.091 A 
ATOM     21  C   UNL     1      49.998 157.922  42.778  0.00  0.00    +0.135 A 
ATOM     22  C   UNL     1      50.471 159.194  42.438  0.00  0.00    +0.109 A 
ATOM     23  C   UNL     1      49.559 160.308  42.159  0.00  0.00    +0.238 A 
ATOM     24  O   UNL     1      48.338 160.156  42.188  0.00  0.00    -0.283 OA
BRANCH  15  25
ATOM     25  C   UNL     1      52.213 162.965  41.480  0.00  0.00    +0.025 A 
ATOM     26  C   UNL     1      52.183 164.026  42.399  0.00  0.00    +0.060 A 
ATOM     27  C   UNL     1      52.844 165.211  42.097  0.00  0.00    +0.159 A 
ATOM     28  C   UNL     1      53.525 165.353  40.891  0.00  0.00    +0.158 A 
ATOM     29  C   UNL     1      53.560 164.321  39.969  0.00  0.00    +0.050 A 
ATOM     30  C   UNL     1      52.902 163.124  40.264  0.00  0.00    +0.015 A 
BRANCH  27  31
ATOM     31  O   UNL     1      52.865 166.272  42.958  0.00  0.00    -0.503 OA
ATOM     32  H   UNL     1      52.576 167.068  42.479  0.00  0.00    +0.292 HD
ENDBRANCH  27  31
BRANCH  28  33
ATOM     33  O   UNL     1      54.180 166.521  40.619  0.00  0.00    -0.503 OA
ATOM     34  H   UNL     1      53.478 167.205  40.653  0.00  0.00    +0.292 HD
ENDBRANCH  28  33
ENDBRANCH  15  25
BRANCH  19  35
ATOM     35  O   UNL     1      53.173 156.141  43.166  0.00  0.00    -0.507 OA
ATOM     36  H   UNL     1      53.040 155.427  42.520  0.00  0.00    +0.292 HD
ENDBRANCH  19  35
BRANCH  21  37
ATOM     37  O   UNL     1      48.667 157.621  42.885  0.00  0.00    -0.506 OA
ATOM     38  H   UNL     1      48.155 158.261  42.342  0.00  0.00    +0.292 HD
ENDBRANCH  21  37
ENDBRANCH  13  14
ENDBRANCH   5  13
BRANCH   1  39
ATOM     39  C   UNL     1      49.872 166.556  40.675  0.00  0.00    +0.197 C 
BRANCH  39  40
ATOM     40  O   UNL     1      49.758 166.690  42.091  0.00  0.00    -0.346 OA
BRANCH  40  46
ATOM     41  C   UNL     1      49.543 169.044  45.870  0.00  0.00    +0.041 C 
ATOM     42  C   UNL     1      50.513 169.093  44.691  0.00  0.00    +0.149 C 
ATOM     43  C   UNL     1      50.363 170.399  43.883  0.00  0.00    +0.174 C 
ATOM     44  C   UNL     1      49.241 170.364  42.829  0.00  0.00    +0.179 C 
ATOM     45  C   UNL     1      48.840 168.938  42.420  0.00  0.00    +0.201 C 
ATOM     46  C   UNL     1      50.063 168.007  42.565  0.00  0.00    +0.282 C 
ATOM     47  O   UNL     1      50.373 167.872  43.955  0.00  0.00    -0.343 OA
BRANCH  43  48
ATOM     48  O   UNL     1      51.612 170.625  43.198  0.00  0.00    -0.387 OA
ATOM     49  H   UNL     1      51.819 171.575  43.255  0.00  0.00    +0.210 HD
ENDBRANCH  43  48
BRANCH  44  50
ATOM     50  O   UNL     1      48.112 171.145  43.230  0.00  0.00    -0.386 OA
ATOM     51  H   UNL     1      48.029 171.090  44.196  0.00  0.00    +0.210 HD
ENDBRANCH  44  50
BRANCH  45  52
ATOM     52  O   UNL     1      47.746 168.435  43.215  0.00  0.00    -0.384 OA
ATOM     53  H   UNL     1      47.076 169.147  43.227  0.00  0.00    +0.210 HD
ENDBRANCH  45  52
ENDBRANCH  40  46
ENDBRANCH  39  40
ENDBRANCH   1  39
TORSDOF 16
ENDMDL
