MODEL 1
REMARK VINA RESULT:    -8.134      0.000      0.000
REMARK INTER + INTRA:         -12.212
REMARK INTER:                 -11.462
REMARK INTRA:                  -0.750
REMARK UNBOUND:                -0.750
REMARK  Name = 
REMARK  8 active torsions:
REMARK  status: ('A' for Active; 'I' for Inactive)
REMARK    1  A    between atoms: C_1  and  C_2
REMARK    2  A    between atoms: C_2  and  C_3
REMARK    3  A    between atoms: C_2  and  N_6
REMARK    4  A    between atoms: N_6  and  C_7
REMARK    5  A    between atoms: C_7  and  C_8
REMARK    6  A    between atoms: C_11  and  O_14
REMARK    7  A    between atoms: O_14  and  C_15
REMARK    8  A    between atoms: C_15  and  C_16
REMARK                            x       y       z     vdW  Elec       q    Type
REMARK                         _______ _______ _______ _____ _____    ______ ____
ROOT
ATOM      1  C   UNL     1      50.127 160.312  41.866  0.00  0.00    -0.033 A 
ATOM      2  C   UNL     1      51.302 159.769  42.404  0.00  0.00    +0.008 A 
ATOM      3  C   UNL     1      51.460 158.384  42.528  0.00  0.00    +0.046 A 
ATOM      4  C   UNL     1      50.449 157.523  42.107  0.00  0.00    +0.121 A 
ATOM      5  C   UNL     1      49.274 158.060  41.574  0.00  0.00    +0.046 A 
ATOM      6  C   UNL     1      49.113 159.443  41.447  0.00  0.00    +0.008 A 
ENDROOT
BRANCH   1   7
ATOM      7  C   UNL     1      49.970 161.809  41.723  0.00  0.00    +0.117 C 
BRANCH   7   8
ATOM      8  N   UNL     1      48.825 162.117  40.860  0.00  0.00    -0.302 NA
ATOM      9  H   UNL     1      48.242 161.281  40.819  0.00  0.00    +0.123 HD
BRANCH   8  11
ATOM     10  C   UNL     1      46.504 162.937  41.403  0.00  0.00    +0.034 C 
ATOM     11  C   UNL     1      47.999 163.243  41.355  0.00  0.00    +0.137 C 
BRANCH  11  12
ATOM     12  C   UNL     1      48.299 164.523  40.548  0.00  0.00    +0.227 C 
ATOM     13  O   UNL     1      49.325 164.726  39.909  0.00  0.00    -0.274 OA
ATOM     14  N   UNL     1      47.313 165.475  40.600  0.00  0.00    -0.328 N 
ATOM     15  H   UNL     1      47.444 166.278  39.996  0.00  0.00    +0.145 HD
ATOM     16  H   UNL     1      46.363 165.220  40.833  0.00  0.00    +0.145 HD
ENDBRANCH  11  12
ENDBRANCH   8  11
ENDBRANCH   7   8
ENDBRANCH   1   7
BRANCH   4  17
ATOM     17  O   UNL     1      50.466 156.158  42.178  0.00  0.00    -0.487 OA
BRANCH  17  18
ATOM     18  C   UNL     1      49.274 155.482  42.587  0.00  0.00    +0.264 C 
BRANCH  18  19
ATOM     19  C   UNL     1      49.316 155.007  44.023  0.00  0.00    -0.008 A 
ATOM     20  C   UNL     1      49.297 155.916  45.091  0.00  0.00    +0.045 A 
ATOM     21  C   UNL     1      49.307 155.451  46.402  0.00  0.00    +0.124 A 
ATOM     22  C   UNL     1      49.323 154.089  46.679  0.00  0.00    +0.038 A 
ATOM     23  C   UNL     1      49.327 153.175  45.628  0.00  0.00    +0.003 A 
ATOM     24  C   UNL     1      49.318 153.632  44.307  0.00  0.00    +0.007 A 
ATOM     25  F   UNL     1      49.293 156.329  47.413  0.00  0.00    -0.205 F 
ENDBRANCH  18  19
ENDBRANCH  17  18
ENDBRANCH   4  17
TORSDOF 7
ENDMDL
MODEL 2
REMARK VINA RESULT:    -7.842      3.889      8.855
REMARK INTER + INTRA:         -11.801
REMARK INTER:                 -10.853
REMARK INTRA:                  -0.948
REMARK UNBOUND:                -0.750
REMARK  Name = 
REMARK  8 active torsions:
REMARK  status: ('A' for Active; 'I' for Inactive)
REMARK    1  A    between atoms: C_1  and  C_2
REMARK    2  A    between atoms: C_2  and  C_3
REMARK    3  A    between atoms: C_2  and  N_6
REMARK    4  A    between atoms: N_6  and  C_7
REMARK    5  A    between atoms: C_7  and  C_8
REMARK    6  A    between atoms: C_11  and  O_14
REMARK    7  A    between atoms: O_14  and  C_15
REMARK    8  A    between atoms: C_15  and  C_16
REMARK                            x       y       z     vdW  Elec       q    Type
REMARK                         _______ _______ _______ _____ _____    ______ ____
ROOT
ATOM      1  C   UNL     1      49.189 160.364  41.972  0.00  0.00    -0.033 A 
ATOM      2  C   UNL     1      48.900 161.175  43.077  0.00  0.00    +0.008 A 
ATOM      3  C   UNL     1      48.059 162.287  42.951  0.00  0.00    +0.046 A 
ATOM      4  C   UNL     1      47.488 162.597  41.718  0.00  0.00    +0.121 A 
ATOM      5  C   UNL     1      47.777 161.793  40.612  0.00  0.00    +0.046 A 
ATOM      6  C   UNL     1      48.615 160.681  40.735  0.00  0.00    +0.008 A 
ENDROOT
BRANCH   1   7
ATOM      7  C   UNL     1      50.087 159.157  42.120  0.00  0.00    +0.117 C 
BRANCH   7   8
ATOM      8  N   UNL     1      50.286 158.846  43.539  0.00  0.00    -0.302 NA
ATOM      9  H   UNL     1      49.621 159.408  44.070  0.00  0.00    +0.123 HD
BRANCH   8  11
ATOM     10  C   UNL     1      50.189 156.482  42.670  0.00  0.00    +0.034 C 
ATOM     11  C   UNL     1      50.061 157.418  43.868  0.00  0.00    +0.137 C 
BRANCH  11  12
ATOM     12  C   UNL     1      48.713 157.242  44.596  0.00  0.00    +0.227 C 
ATOM     13  O   UNL     1      48.583 156.852  45.751  0.00  0.00    -0.274 OA
ATOM     14  N   UNL     1      47.611 157.545  43.837  0.00  0.00    -0.328 N 
ATOM     15  H   UNL     1      46.724 157.535  44.327  0.00  0.00    +0.145 HD
ATOM     16  H   UNL     1      47.691 158.153  43.034  0.00  0.00    +0.145 HD
ENDBRANCH  11  12
ENDBRANCH   8  11
ENDBRANCH   7   8
ENDBRANCH   1   7
BRANCH   4  17
ATOM     17  O   UNL     1      46.662 163.652  41.451  0.00  0.00    -0.487 OA
BRANCH  17  18
ATOM     18  C   UNL     1      47.037 164.566  40.418  0.00  0.00    +0.264 C 
BRANCH  18  19
ATOM     19  C   UNL     1      48.266 165.382  40.755  0.00  0.00    -0.008 A 
ATOM     20  C   UNL     1      49.511 165.096  40.175  0.00  0.00    +0.045 A 
ATOM     21  C   UNL     1      50.618 165.880  40.480  0.00  0.00    +0.124 A 
ATOM     22  C   UNL     1      50.514 166.960  41.348  0.00  0.00    +0.038 A 
ATOM     23  C   UNL     1      49.280 167.265  41.920  0.00  0.00    +0.003 A 
ATOM     24  C   UNL     1      48.161 166.483  41.620  0.00  0.00    +0.007 A 
ATOM     25  F   UNL     1      51.802 165.594  39.924  0.00  0.00    -0.205 F 
ENDBRANCH  18  19
ENDBRANCH  17  18
ENDBRANCH   4  17
TORSDOF 7
ENDMDL
MODEL 3
REMARK VINA RESULT:    -7.818      2.659      4.120
REMARK INTER + INTRA:         -11.767
REMARK INTER:                 -11.059
REMARK INTRA:                  -0.708
REMARK UNBOUND:                -0.750
REMARK  Name = 
REMARK  8 active torsions:
REMARK  status: ('A' for Active; 'I' for Inactive)
REMARK    1  A    between atoms: C_1  and  C_2
REMARK    2  A    between atoms: C_2  and  C_3
REMARK    3  A    between atoms: C_2  and  N_6
REMARK    4  A    between atoms: N_6  and  C_7
REMARK    5  A    between atoms: C_7  and  C_8
REMARK    6  A    between atoms: C_11  and  O_14
REMARK    7  A    between atoms: O_14  and  C_15
REMARK    8  A    between atoms: C_15  and  C_16
REMARK                            x       y       z     vdW  Elec       q    Type
REMARK                         _______ _______ _______ _____ _____    ______ ____
ROOT
ATOM      1  C   UNL     1      49.216 163.703  40.824  0.00  0.00    -0.033 A 
ATOM      2  C   UNL     1      48.023 163.105  40.399  0.00  0.00    +0.008 A 
ATOM      3  C   UNL     1      47.818 161.729  40.547  0.00  0.00    +0.046 A 
ATOM      4  C   UNL     1      48.801 160.933  41.132  0.00  0.00    +0.121 A 
ATOM      5  C   UNL     1      49.994 161.525  41.554  0.00  0.00    +0.046 A 
ATOM      6  C   UNL     1      50.202 162.899  41.409  0.00  0.00    +0.008 A 
ENDROOT
BRANCH   1   7
ATOM      7  C   UNL     1      49.424 165.193  40.673  0.00  0.00    +0.117 C 
BRANCH   7   8
ATOM      8  N   UNL     1      50.463 165.460  39.674  0.00  0.00    -0.302 NA
ATOM      9  H   UNL     1      50.055 166.067  38.964  0.00  0.00    +0.123 HD
BRANCH   8  11
ATOM     10  C   UNL     1      51.919 167.518  39.649  0.00  0.00    +0.034 C 
ATOM     11  C   UNL     1      51.661 166.131  40.232  0.00  0.00    +0.137 C 
BRANCH  11  12
ATOM     12  C   UNL     1      52.896 165.215  40.107  0.00  0.00    +0.227 C 
ATOM     13  O   UNL     1      53.872 165.247  40.846  0.00  0.00    -0.274 OA
ATOM     14  N   UNL     1      52.846 164.330  39.060  0.00  0.00    -0.328 N 
ATOM     15  H   UNL     1      53.597 163.652  39.022  0.00  0.00    +0.145 HD
ATOM     16  H   UNL     1      51.960 164.065  38.653  0.00  0.00    +0.145 HD
ENDBRANCH  11  12
ENDBRANCH   8  11
ENDBRANCH   7   8
ENDBRANCH   1   7
BRANCH   4  17
ATOM     17  O   UNL     1      48.737 159.581  41.329  0.00  0.00    -0.487 OA
BRANCH  17  18
ATOM     18  C   UNL     1      49.928 158.894  41.721  0.00  0.00    +0.264 C 
BRANCH  18  19
ATOM     19  C   UNL     1      49.671 157.732  42.654  0.00  0.00    -0.008 A 
ATOM     20  C   UNL     1      49.197 157.938  43.959  0.00  0.00    +0.045 A 
ATOM     21  C   UNL     1      48.941 156.850  44.786  0.00  0.00    +0.124 A 
ATOM     22  C   UNL     1      49.134 155.548  44.340  0.00  0.00    +0.038 A 
ATOM     23  C   UNL     1      49.590 155.329  43.041  0.00  0.00    +0.003 A 
ATOM     24  C   UNL     1      49.851 156.415  42.202  0.00  0.00    +0.007 A 
ATOM     25  F   UNL     1      48.493 157.059  46.031  0.00  0.00    -0.205 F 
ENDBRANCH  18  19
ENDBRANCH  17  18
ENDBRANCH   4  17
TORSDOF 7
ENDMDL
MODEL 4
REMARK VINA RESULT:    -7.722      3.764      8.968
REMARK INTER + INTRA:         -11.632
REMARK INTER:                 -10.695
REMARK INTRA:                  -0.937
REMARK UNBOUND:                -0.750
REMARK  Name = 
REMARK  8 active torsions:
REMARK  status: ('A' for Active; 'I' for Inactive)
REMARK    1  A    between atoms: C_1  and  C_2
REMARK    2  A    between atoms: C_2  and  C_3
REMARK    3  A    between atoms: C_2  and  N_6
REMARK    4  A    between atoms: N_6  and  C_7
REMARK    5  A    between atoms: C_7  and  C_8
REMARK    6  A    between atoms: C_11  and  O_14
REMARK    7  A    between atoms: O_14  and  C_15
REMARK    8  A    between atoms: C_15  and  C_16
REMARK                            x       y       z     vdW  Elec       q    Type
REMARK                         _______ _______ _______ _____ _____    ______ ____
ROOT
ATOM      1  C   UNL     1      49.256 160.248  42.282  0.00  0.00    -0.033 A 
ATOM      2  C   UNL     1      48.780 160.377  40.971  0.00  0.00    +0.008 A 
ATOM      3  C   UNL     1      47.918 161.422  40.620  0.00  0.00    +0.046 A 
ATOM      4  C   UNL     1      47.529 162.359  41.575  0.00  0.00    +0.121 A 
ATOM      5  C   UNL     1      47.998 162.232  42.885  0.00  0.00    +0.046 A 
ATOM      6  C   UNL     1      48.860 161.190  43.239  0.00  0.00    +0.008 A 
ENDROOT
BRANCH   1   7
ATOM      7  C   UNL     1      50.198 159.123  42.649  0.00  0.00    +0.117 C 
BRANCH   7   8
ATOM      8  N   UNL     1      49.620 157.833  42.261  0.00  0.00    -0.302 NA
ATOM      9  H   UNL     1      50.378 157.259  41.891  0.00  0.00    +0.123 HD
BRANCH   8  11
ATOM     10  C   UNL     1      49.400 157.620  44.763  0.00  0.00    +0.034 C 
ATOM     11  C   UNL     1      48.987 157.106  43.387  0.00  0.00    +0.137 C 
BRANCH  11  12
ATOM     12  C   UNL     1      49.222 155.588  43.244  0.00  0.00    +0.227 C 
ATOM     13  O   UNL     1      49.444 154.821  44.174  0.00  0.00    -0.274 OA
ATOM     14  N   UNL     1      49.184 155.123  41.954  0.00  0.00    -0.328 N 
ATOM     15  H   UNL     1      49.233 154.117  41.848  0.00  0.00    +0.145 HD
ATOM     16  H   UNL     1      48.700 155.643  41.235  0.00  0.00    +0.145 HD
ENDBRANCH  11  12
ENDBRANCH   8  11
ENDBRANCH   7   8
ENDBRANCH   1   7
BRANCH   4  17
ATOM     17  O   UNL     1      46.689 163.419  41.374  0.00  0.00    -0.487 OA
BRANCH  17  18
ATOM     18  C   UNL     1      47.025 164.370  40.361  0.00  0.00    +0.264 C 
BRANCH  18  19
ATOM     19  C   UNL     1      48.239 165.206  40.701  0.00  0.00    -0.008 A 
ATOM     20  C   UNL     1      49.493 164.932  40.135  0.00  0.00    +0.045 A 
ATOM     21  C   UNL     1      50.587 165.735  40.443  0.00  0.00    +0.124 A 
ATOM     22  C   UNL     1      50.460 166.821  41.300  0.00  0.00    +0.038 A 
ATOM     23  C   UNL     1      49.217 167.114  41.857  0.00  0.00    +0.003 A 
ATOM     24  C   UNL     1      48.111 166.314  41.555  0.00  0.00    +0.007 A 
ATOM     25  F   UNL     1      51.780 165.460  39.900  0.00  0.00    -0.205 F 
ENDBRANCH  18  19
ENDBRANCH  17  18
ENDBRANCH   4  17
TORSDOF 7
ENDMDL
MODEL 5
REMARK VINA RESULT:    -7.659      1.923      2.829
REMARK INTER + INTRA:         -11.542
REMARK INTER:                 -10.993
REMARK INTRA:                  -0.550
REMARK UNBOUND:                -0.750
REMARK  Name = 
REMARK  8 active torsions:
REMARK  status: ('A' for Active; 'I' for Inactive)
REMARK    1  A    between atoms: C_1  and  C_2
REMARK    2  A    between atoms: C_2  and  C_3
REMARK    3  A    between atoms: C_2  and  N_6
REMARK    4  A    between atoms: N_6  and  C_7
REMARK    5  A    between atoms: C_7  and  C_8
REMARK    6  A    between atoms: C_11  and  O_14
REMARK    7  A    between atoms: O_14  and  C_15
REMARK    8  A    between atoms: C_15  and  C_16
REMARK                            x       y       z     vdW  Elec       q    Type
REMARK                         _______ _______ _______ _____ _____    ______ ____
ROOT
ATOM      1  C   UNL     1      48.922 162.596  40.895  0.00  0.00    -0.033 A 
ATOM      2  C   UNL     1      50.135 162.230  41.493  0.00  0.00    +0.008 A 
ATOM      3  C   UNL     1      50.345 160.923  41.949  0.00  0.00    +0.046 A 
ATOM      4  C   UNL     1      49.347 159.962  41.804  0.00  0.00    +0.121 A 
ATOM      5  C   UNL     1      48.134 160.323  41.212  0.00  0.00    +0.046 A 
ATOM      6  C   UNL     1      47.921 161.627  40.754  0.00  0.00    +0.008 A 
ENDROOT
BRANCH   1   7
ATOM      7  C   UNL     1      48.708 164.005  40.393  0.00  0.00    +0.117 C 
BRANCH   7   8
ATOM      8  N   UNL     1      48.931 164.967  41.477  0.00  0.00    -0.302 NA
ATOM      9  H   UNL     1      49.624 164.563  42.106  0.00  0.00    +0.123 HD
BRANCH   8  11
ATOM     10  C   UNL     1      50.906 166.272  40.611  0.00  0.00    +0.034 C 
ATOM     11  C   UNL     1      49.432 166.281  41.007  0.00  0.00    +0.137 C 
BRANCH  11  12
ATOM     12  C   UNL     1      49.123 167.375  42.049  0.00  0.00    +0.227 C 
ATOM     13  O   UNL     1      49.920 167.808  42.873  0.00  0.00    -0.274 OA
ATOM     14  N   UNL     1      47.836 167.851  42.013  0.00  0.00    -0.328 N 
ATOM     15  H   UNL     1      47.642 168.640  42.617  0.00  0.00    +0.145 HD
ATOM     16  H   UNL     1      47.278 167.759  41.175  0.00  0.00    +0.145 HD
ENDBRANCH  11  12
ENDBRANCH   8  11
ENDBRANCH   7   8
ENDBRANCH   1   7
BRANCH   4  17
ATOM     17  O   UNL     1      49.413 158.658  42.211  0.00  0.00    -0.487 OA
BRANCH  17  18
ATOM     18  C   UNL     1      48.369 158.151  43.045  0.00  0.00    +0.264 C 
BRANCH  18  19
ATOM     19  C   UNL     1      48.780 156.941  43.853  0.00  0.00    -0.008 A 
ATOM     20  C   UNL     1      48.686 156.934  45.252  0.00  0.00    +0.045 A 
ATOM     21  C   UNL     1      49.043 155.797  45.969  0.00  0.00    +0.124 A 
ATOM     22  C   UNL     1      49.485 154.650  45.320  0.00  0.00    +0.038 A 
ATOM     23  C   UNL     1      49.569 154.638  43.930  0.00  0.00    +0.003 A 
ATOM     24  C   UNL     1      49.213 155.775  43.200  0.00  0.00    +0.007 A 
ATOM     25  F   UNL     1      48.954 155.804  47.306  0.00  0.00    -0.205 F 
ENDBRANCH  18  19
ENDBRANCH  17  18
ENDBRANCH   4  17
TORSDOF 7
ENDMDL
MODEL 6
REMARK VINA RESULT:    -7.552      3.887      8.989
REMARK INTER + INTRA:         -11.392
REMARK INTER:                 -10.484
REMARK INTRA:                  -0.908
REMARK UNBOUND:                -0.750
REMARK  Name = 
REMARK  8 active torsions:
REMARK  status: ('A' for Active; 'I' for Inactive)
REMARK    1  A    between atoms: C_1  and  C_2
REMARK    2  A    between atoms: C_2  and  C_3
REMARK    3  A    between atoms: C_2  and  N_6
REMARK    4  A    between atoms: N_6  and  C_7
REMARK    5  A    between atoms: C_7  and  C_8
REMARK    6  A    between atoms: C_11  and  O_14
REMARK    7  A    between atoms: O_14  and  C_15
REMARK    8  A    between atoms: C_15  and  C_16
REMARK                            x       y       z     vdW  Elec       q    Type
REMARK                         _______ _______ _______ _____ _____    ______ ____
ROOT
ATOM      1  C   UNL     1      49.279 160.238  42.082  0.00  0.00    -0.033 A 
ATOM      2  C   UNL     1      48.613 160.353  40.854  0.00  0.00    +0.008 A 
ATOM      3  C   UNL     1      47.732 161.412  40.613  0.00  0.00    +0.046 A 
ATOM      4  C   UNL     1      47.512 162.378  41.593  0.00  0.00    +0.121 A 
ATOM      5  C   UNL     1      48.171 162.265  42.820  0.00  0.00    +0.046 A 
ATOM      6  C   UNL     1      49.053 161.209  43.064  0.00  0.00    +0.008 A 
ENDROOT
BRANCH   1   7
ATOM      7  C   UNL     1      50.240 159.098  42.329  0.00  0.00    +0.117 C 
BRANCH   7   8
ATOM      8  N   UNL     1      49.637 157.828  41.911  0.00  0.00    -0.302 NA
ATOM      9  H   UNL     1      50.322 157.342  41.333  0.00  0.00    +0.123 HD
BRANCH   8  11
ATOM     10  C   UNL     1      49.518 157.569  44.416  0.00  0.00    +0.034 C 
ATOM     11  C   UNL     1      49.269 156.947  43.045  0.00  0.00    +0.137 C 
BRANCH  11  12
ATOM     12  C   UNL     1      49.958 155.574  42.901  0.00  0.00    +0.227 C 
ATOM     13  O   UNL     1      49.940 154.687  43.746  0.00  0.00    -0.274 OA
ATOM     14  N   UNL     1      50.642 155.398  41.725  0.00  0.00    -0.328 N 
ATOM     15  H   UNL     1      51.014 154.470  41.566  0.00  0.00    +0.145 HD
ATOM     16  H   UNL     1      50.414 155.952  40.910  0.00  0.00    +0.145 HD
ENDBRANCH  11  12
ENDBRANCH   8  11
ENDBRANCH   7   8
ENDBRANCH   1   7
BRANCH   4  17
ATOM     17  O   UNL     1      46.675 163.455  41.495  0.00  0.00    -0.487 OA
BRANCH  17  18
ATOM     18  C   UNL     1      46.913 164.409  40.458  0.00  0.00    +0.264 C 
BRANCH  18  19
ATOM     19  C   UNL     1      48.132 165.270  40.703  0.00  0.00    -0.008 A 
ATOM     20  C   UNL     1      48.085 166.366  41.577  0.00  0.00    +0.045 A 
ATOM     21  C   UNL     1      49.229 167.123  41.808  0.00  0.00    +0.124 A 
ATOM     22  C   UNL     1      50.434 166.807  41.192  0.00  0.00    +0.038 A 
ATOM     23  C   UNL     1      50.499 165.711  40.333  0.00  0.00    +0.003 A 
ATOM     24  C   UNL     1      49.355 164.944  40.095  0.00  0.00    +0.007 A 
ATOM     25  F   UNL     1      49.170 168.170  42.641  0.00  0.00    -0.205 F 
ENDBRANCH  18  19
ENDBRANCH  17  18
ENDBRANCH   4  17
TORSDOF 7
ENDMDL
MODEL 7
REMARK VINA RESULT:    -7.531      3.930      8.551
REMARK INTER + INTRA:         -11.363
REMARK INTER:                 -10.660
REMARK INTRA:                  -0.703
REMARK UNBOUND:                -0.750
REMARK  Name = 
REMARK  8 active torsions:
REMARK  status: ('A' for Active; 'I' for Inactive)
REMARK    1  A    between atoms: C_1  and  C_2
REMARK    2  A    between atoms: C_2  and  C_3
REMARK    3  A    between atoms: C_2  and  N_6
REMARK    4  A    between atoms: N_6  and  C_7
REMARK    5  A    between atoms: C_7  and  C_8
REMARK    6  A    between atoms: C_11  and  O_14
REMARK    7  A    between atoms: O_14  and  C_15
REMARK    8  A    between atoms: C_15  and  C_16
REMARK                            x       y       z     vdW  Elec       q    Type
REMARK                         _______ _______ _______ _____ _____    ______ ____
ROOT
ATOM      1  C   UNL     1      50.257 157.211  42.179  0.00  0.00    -0.033 A 
ATOM      2  C   UNL     1      51.473 157.789  42.566  0.00  0.00    +0.008 A 
ATOM      3  C   UNL     1      51.673 159.171  42.472  0.00  0.00    +0.046 A 
ATOM      4  C   UNL     1      50.654 159.995  41.999  0.00  0.00    +0.121 A 
ATOM      5  C   UNL     1      49.441 159.422  41.608  0.00  0.00    +0.046 A 
ATOM      6  C   UNL     1      49.238 158.042  41.701  0.00  0.00    +0.008 A 
ENDROOT
BRANCH   1   7
ATOM      7  C   UNL     1      50.045 155.719  42.296  0.00  0.00    +0.117 C 
BRANCH   7   8
ATOM      8  N   UNL     1      48.992 155.433  43.275  0.00  0.00    -0.302 NA
ATOM      9  H   UNL     1      48.459 154.637  42.925  0.00  0.00    +0.123 HD
BRANCH   8  11
ATOM     10  C   UNL     1      49.264 153.644  45.031  0.00  0.00    +0.034 C 
ATOM     11  C   UNL     1      49.513 155.093  44.621  0.00  0.00    +0.137 C 
BRANCH  11  12
ATOM     12  C   UNL     1      48.976 156.089  45.669  0.00  0.00    +0.227 C 
ATOM     13  O   UNL     1      49.155 156.001  46.878  0.00  0.00    -0.274 OA
ATOM     14  N   UNL     1      48.236 157.122  45.151  0.00  0.00    -0.328 N 
ATOM     15  H   UNL     1      47.963 157.841  45.809  0.00  0.00    +0.145 HD
ATOM     16  H   UNL     1      48.342 157.394  44.183  0.00  0.00    +0.145 HD
ENDBRANCH  11  12
ENDBRANCH   8  11
ENDBRANCH   7   8
ENDBRANCH   1   7
BRANCH   4  17
ATOM     17  O   UNL     1      50.715 161.352  41.847  0.00  0.00    -0.487 OA
BRANCH  17  18
ATOM     18  C   UNL     1      49.500 162.101  41.924  0.00  0.00    +0.264 C 
BRANCH  18  19
ATOM     19  C   UNL     1      49.645 163.530  41.449  0.00  0.00    -0.008 A 
ATOM     20  C   UNL     1      48.630 164.474  41.663  0.00  0.00    +0.045 A 
ATOM     21  C   UNL     1      48.801 165.789  41.242  0.00  0.00    +0.124 A 
ATOM     22  C   UNL     1      49.974 166.195  40.618  0.00  0.00    +0.038 A 
ATOM     23  C   UNL     1      50.997 165.271  40.413  0.00  0.00    +0.003 A 
ATOM     24  C   UNL     1      50.835 163.947  40.832  0.00  0.00    +0.007 A 
ATOM     25  F   UNL     1      47.823 166.680  41.448  0.00  0.00    -0.205 F 
ENDBRANCH  18  19
ENDBRANCH  17  18
ENDBRANCH   4  17
TORSDOF 7
ENDMDL
MODEL 8
REMARK VINA RESULT:    -7.414      3.654      8.575
REMARK INTER + INTRA:         -11.198
REMARK INTER:                 -10.591
REMARK INTRA:                  -0.607
REMARK UNBOUND:                -0.750
REMARK  Name = 
REMARK  8 active torsions:
REMARK  status: ('A' for Active; 'I' for Inactive)
REMARK    1  A    between atoms: C_1  and  C_2
REMARK    2  A    between atoms: C_2  and  C_3
REMARK    3  A    between atoms: C_2  and  N_6
REMARK    4  A    between atoms: N_6  and  C_7
REMARK    5  A    between atoms: C_7  and  C_8
REMARK    6  A    between atoms: C_11  and  O_14
REMARK    7  A    between atoms: O_14  and  C_15
REMARK    8  A    between atoms: C_15  and  C_16
REMARK                            x       y       z     vdW  Elec       q    Type
REMARK                         _______ _______ _______ _____ _____    ______ ____
ROOT
ATOM      1  C   UNL     1      50.009 158.098  42.062  0.00  0.00    -0.033 A 
ATOM      2  C   UNL     1      48.914 158.804  41.547  0.00  0.00    +0.008 A 
ATOM      3  C   UNL     1      48.978 160.189  41.356  0.00  0.00    +0.046 A 
ATOM      4  C   UNL     1      50.145 160.886  41.667  0.00  0.00    +0.121 A 
ATOM      5  C   UNL     1      51.238 160.186  42.184  0.00  0.00    +0.046 A 
ATOM      6  C   UNL     1      51.177 158.803  42.376  0.00  0.00    +0.008 A 
ENDROOT
BRANCH   1   7
ATOM      7  C   UNL     1      49.935 156.601  42.253  0.00  0.00    +0.117 C 
BRANCH   7   8
ATOM      8  N   UNL     1      48.914 156.268  43.251  0.00  0.00    -0.302 NA
ATOM      9  H   UNL     1      48.260 155.619  42.813  0.00  0.00    +0.123 HD
BRANCH   8  11
ATOM     10  C   UNL     1      49.275 154.115  44.511  0.00  0.00    +0.034 C 
ATOM     11  C   UNL     1      49.465 155.629  44.470  0.00  0.00    +0.137 C 
BRANCH  11  12
ATOM     12  C   UNL     1      48.905 156.314  45.734  0.00  0.00    +0.227 C 
ATOM     13  O   UNL     1      49.137 155.963  46.884  0.00  0.00    -0.274 OA
ATOM     14  N   UNL     1      48.079 157.380  45.486  0.00  0.00    -0.328 N 
ATOM     15  H   UNL     1      47.784 157.906  46.300  0.00  0.00    +0.145 HD
ATOM     16  H   UNL     1      48.128 157.875  44.606  0.00  0.00    +0.145 HD
ENDBRANCH  11  12
ENDBRANCH   8  11
ENDBRANCH   7   8
ENDBRANCH   1   7
BRANCH   4  17
ATOM     17  O   UNL     1      50.342 162.232  41.539  0.00  0.00    -0.487 OA
BRANCH  17  18
ATOM     18  C   UNL     1      49.229 163.051  41.170  0.00  0.00    +0.264 C 
BRANCH  18  19
ATOM     19  C   UNL     1      49.252 164.420  41.813  0.00  0.00    -0.008 A 
ATOM     20  C   UNL     1      49.919 164.643  43.026  0.00  0.00    +0.045 A 
ATOM     21  C   UNL     1      49.949 165.919  43.580  0.00  0.00    +0.124 A 
ATOM     22  C   UNL     1      49.336 166.991  42.944  0.00  0.00    +0.038 A 
ATOM     23  C   UNL     1      48.683 166.787  41.730  0.00  0.00    +0.003 A 
ATOM     24  C   UNL     1      48.647 165.509  41.165  0.00  0.00    +0.007 A 
ATOM     25  F   UNL     1      50.585 166.118  44.742  0.00  0.00    -0.205 F 
ENDBRANCH  18  19
ENDBRANCH  17  18
ENDBRANCH   4  17
TORSDOF 7
ENDMDL
MODEL 9
REMARK VINA RESULT:    -7.338      3.980      9.482
REMARK INTER + INTRA:         -11.091
REMARK INTER:                 -10.314
REMARK INTRA:                  -0.777
REMARK UNBOUND:                -0.750
REMARK  Name = 
REMARK  8 active torsions:
REMARK  status: ('A' for Active; 'I' for Inactive)
REMARK    1  A    between atoms: C_1  and  C_2
REMARK    2  A    between atoms: C_2  and  C_3
REMARK    3  A    between atoms: C_2  and  N_6
REMARK    4  A    between atoms: N_6  and  C_7
REMARK    5  A    between atoms: C_7  and  C_8
REMARK    6  A    between atoms: C_11  and  O_14
REMARK    7  A    between atoms: O_14  and  C_15
REMARK    8  A    between atoms: C_15  and  C_16
REMARK                            x       y       z     vdW  Elec       q    Type
REMARK                         _______ _______ _______ _____ _____    ______ ____
ROOT
ATOM      1  C   UNL     1      48.463 160.578  41.703  0.00  0.00    -0.033 A 
ATOM      2  C   UNL     1      47.278 161.169  41.245  0.00  0.00    +0.008 A 
ATOM      3  C   UNL     1      47.279 162.471  40.731  0.00  0.00    +0.046 A 
ATOM      4  C   UNL     1      48.467 163.196  40.660  0.00  0.00    +0.121 A 
ATOM      5  C   UNL     1      49.650 162.611  41.119  0.00  0.00    +0.046 A 
ATOM      6  C   UNL     1      49.653 161.310  41.632  0.00  0.00    +0.008 A 
ENDROOT
BRANCH   1   7
ATOM      7  C   UNL     1      48.456 159.166  42.243  0.00  0.00    +0.117 C 
BRANCH   7   8
ATOM      8  N   UNL     1      48.920 159.154  43.634  0.00  0.00    -0.302 NA
ATOM      9  H   UNL     1      48.094 159.124  44.231  0.00  0.00    +0.123 HD
BRANCH   8  11
ATOM     10  C   UNL     1      50.575 157.458  42.772  0.00  0.00    +0.034 C 
ATOM     11  C   UNL     1      49.778 157.990  43.960  0.00  0.00    +0.137 C 
BRANCH  11  12
ATOM     12  C   UNL     1      48.944 156.883  44.637  0.00  0.00    +0.227 C 
ATOM     13  O   UNL     1      48.985 155.694  44.344  0.00  0.00    -0.274 OA
ATOM     14  N   UNL     1      48.099 157.327  45.623  0.00  0.00    -0.328 N 
ATOM     15  H   UNL     1      47.620 156.606  46.148  0.00  0.00    +0.145 HD
ATOM     16  H   UNL     1      48.273 158.205  46.091  0.00  0.00    +0.145 HD
ENDBRANCH  11  12
ENDBRANCH   8  11
ENDBRANCH   7   8
ENDBRANCH   1   7
BRANCH   4  17
ATOM     17  O   UNL     1      48.610 164.473  40.193  0.00  0.00    -0.487 OA
BRANCH  17  18
ATOM     18  C   UNL     1      49.898 165.087  40.275  0.00  0.00    +0.264 C 
BRANCH  18  19
ATOM     19  C   UNL     1      49.883 166.418  40.995  0.00  0.00    -0.008 A 
ATOM     20  C   UNL     1      48.787 166.810  41.776  0.00  0.00    +0.045 A 
ATOM     21  C   UNL     1      48.812 168.026  42.452  0.00  0.00    +0.124 A 
ATOM     22  C   UNL     1      49.917 168.865  42.377  0.00  0.00    +0.038 A 
ATOM     23  C   UNL     1      51.020 168.480  41.617  0.00  0.00    +0.003 A 
ATOM     24  C   UNL     1      51.005 167.260  40.935  0.00  0.00    +0.007 A 
ATOM     25  F   UNL     1      47.756 168.392  43.191  0.00  0.00    -0.205 F 
ENDBRANCH  18  19
ENDBRANCH  17  18
ENDBRANCH   4  17
TORSDOF 7
ENDMDL
