MODEL 1
REMARK VINA RESULT:    -5.787      0.000      0.000
REMARK INTER + INTRA:          -7.403
REMARK INTER:                  -7.141
REMARK INTRA:                  -0.262
REMARK UNBOUND:                -0.262
REMARK  Name = 
REMARK  5 active torsions:
REMARK  status: ('A' for Active; 'I' for Inactive)
REMARK    1  A    between atoms: C_2  and  C_3
REMARK    2  A    between atoms: C_3  and  N_4
REMARK    3  A    between atoms: N_4  and  C_5
REMARK    4  A    between atoms: N_4  and  C_6
REMARK    5  A    between atoms: C_6  and  C_7
REMARK                            x       y       z     vdW  Elec       q    Type
REMARK                         _______ _______ _______ _____ _____    ______ ____
ROOT
ATOM      1  C   UNL     1      49.099 156.696  43.752  0.00  0.00    +0.120 C 
ENDROOT
BRANCH   1   2
ATOM      2  C   UNL     1      49.180 155.763  44.943  0.00  0.00    -0.033 A 
ATOM      3  C   UNL     1      49.431 154.394  44.763  0.00  0.00    +0.005 A 
ATOM      4  C   UNL     1      49.526 153.539  45.862  0.00  0.00    +0.000 A 
ATOM      5  C   UNL     1      49.380 154.043  47.153  0.00  0.00    +0.000 A 
ATOM      6  C   UNL     1      49.139 155.402  47.346  0.00  0.00    +0.000 A 
ATOM      7  C   UNL     1      49.044 156.259  46.248  0.00  0.00    +0.005 A 
ENDBRANCH   1   2
BRANCH   1   8
ATOM      8  N   UNL     1      50.339 156.757  42.956  0.00  0.00    -0.290 NA
ATOM      9  C   UNL     1      51.300 157.643  43.622  0.00  0.00    +0.106 C 
BRANCH   8  10
ATOM     10  C   UNL     1      50.059 157.218  41.584  0.00  0.00    +0.173 C 
BRANCH  10  12
ATOM     11  C   UNL     1      48.936 159.646  41.564  0.00  0.00    +0.005 C 
ATOM     12  C   UNL     1      49.437 158.554  41.571  0.00  0.00    -0.090 C 
ENDBRANCH  10  12
ENDBRANCH   8  10
ENDBRANCH   1   8
TORSDOF 4
ENDMDL
MODEL 2
REMARK VINA RESULT:    -5.429      1.182      5.393
REMARK INTER + INTRA:          -6.961
REMARK INTER:                  -6.779
REMARK INTRA:                  -0.182
REMARK UNBOUND:                -0.262
REMARK  Name = 
REMARK  5 active torsions:
REMARK  status: ('A' for Active; 'I' for Inactive)
REMARK    1  A    between atoms: C_2  and  C_3
REMARK    2  A    between atoms: C_3  and  N_4
REMARK    3  A    between atoms: N_4  and  C_5
REMARK    4  A    between atoms: N_4  and  C_6
REMARK    5  A    between atoms: C_6  and  C_7
REMARK                            x       y       z     vdW  Elec       q    Type
REMARK                         _______ _______ _______ _____ _____    ______ ____
ROOT
ATOM      1  C   UNL     1      49.469 156.356  42.583  0.00  0.00    +0.120 C 
ENDROOT
BRANCH   1   2
ATOM      2  C   UNL     1      49.831 157.806  42.334  0.00  0.00    -0.033 A 
ATOM      3  C   UNL     1      51.117 158.284  42.629  0.00  0.00    +0.005 A 
ATOM      4  C   UNL     1      51.455 159.615  42.379  0.00  0.00    +0.000 A 
ATOM      5  C   UNL     1      50.515 160.481  41.825  0.00  0.00    +0.000 A 
ATOM      6  C   UNL     1      49.237 160.017  41.520  0.00  0.00    +0.000 A 
ATOM      7  C   UNL     1      48.897 158.687  41.769  0.00  0.00    +0.005 A 
ENDBRANCH   1   2
BRANCH   1   8
ATOM      8  N   UNL     1      49.775 155.892  43.950  0.00  0.00    -0.290 NA
ATOM      9  C   UNL     1      49.627 154.434  44.011  0.00  0.00    +0.106 C 
BRANCH   8  10
ATOM     10  C   UNL     1      48.899 156.552  44.935  0.00  0.00    +0.173 C 
BRANCH  10  12
ATOM     11  C   UNL     1      49.187 155.498  47.377  0.00  0.00    +0.005 C 
ATOM     12  C   UNL     1      49.057 155.975  46.283  0.00  0.00    -0.090 C 
ENDBRANCH  10  12
ENDBRANCH   8  10
ENDBRANCH   1   8
TORSDOF 4
ENDMDL
MODEL 3
REMARK VINA RESULT:    -5.371      1.257      2.140
REMARK INTER + INTRA:          -6.889
REMARK INTER:                  -6.718
REMARK INTRA:                  -0.171
REMARK UNBOUND:                -0.262
REMARK  Name = 
REMARK  5 active torsions:
REMARK  status: ('A' for Active; 'I' for Inactive)
REMARK    1  A    between atoms: C_2  and  C_3
REMARK    2  A    between atoms: C_3  and  N_4
REMARK    3  A    between atoms: N_4  and  C_5
REMARK    4  A    between atoms: N_4  and  C_6
REMARK    5  A    between atoms: C_6  and  C_7
REMARK                            x       y       z     vdW  Elec       q    Type
REMARK                         _______ _______ _______ _____ _____    ______ ____
ROOT
ATOM      1  C   UNL     1      49.515 158.379  43.714  0.00  0.00    +0.120 C 
ENDROOT
BRANCH   1   2
ATOM      2  C   UNL     1      49.449 157.024  44.388  0.00  0.00    -0.033 A 
ATOM      3  C   UNL     1      49.113 156.916  45.747  0.00  0.00    +0.005 A 
ATOM      4  C   UNL     1      49.033 155.665  46.361  0.00  0.00    +0.000 A 
ATOM      5  C   UNL     1      49.279 154.509  45.624  0.00  0.00    +0.000 A 
ATOM      6  C   UNL     1      49.605 154.602  44.273  0.00  0.00    +0.000 A 
ATOM      7  C   UNL     1      49.686 155.851  43.656  0.00  0.00    +0.005 A 
ENDBRANCH   1   2
BRANCH   1   8
ATOM      8  N   UNL     1      50.113 158.345  42.365  0.00  0.00    -0.290 NA
ATOM      9  C   UNL     1      51.374 159.095  42.376  0.00  0.00    +0.106 C 
BRANCH   8  10
ATOM     10  C   UNL     1      49.181 158.895  41.365  0.00  0.00    +0.173 C 
BRANCH  10  12
ATOM     11  C   UNL     1      49.133 161.570  41.411  0.00  0.00    +0.005 C 
ATOM     12  C   UNL     1      49.152 160.369  41.394  0.00  0.00    -0.090 C 
ENDBRANCH  10  12
ENDBRANCH   8  10
ENDBRANCH   1   8
TORSDOF 4
ENDMDL
MODEL 4
REMARK VINA RESULT:    -5.349      2.073      6.547
REMARK INTER + INTRA:          -6.862
REMARK INTER:                  -6.648
REMARK INTRA:                  -0.214
REMARK UNBOUND:                -0.262
REMARK  Name = 
REMARK  5 active torsions:
REMARK  status: ('A' for Active; 'I' for Inactive)
REMARK    1  A    between atoms: C_2  and  C_3
REMARK    2  A    between atoms: C_3  and  N_4
REMARK    3  A    between atoms: N_4  and  C_5
REMARK    4  A    between atoms: N_4  and  C_6
REMARK    5  A    between atoms: C_6  and  C_7
REMARK                            x       y       z     vdW  Elec       q    Type
REMARK                         _______ _______ _______ _____ _____    ______ ____
ROOT
ATOM      1  C   UNL     1      49.202 159.082  41.610  0.00  0.00    +0.120 C 
ENDROOT
BRANCH   1   2
ATOM      2  C   UNL     1      48.763 160.530  41.529  0.00  0.00    -0.033 A 
ATOM      3  C   UNL     1      47.413 160.879  41.687  0.00  0.00    +0.005 A 
ATOM      4  C   UNL     1      47.014 162.215  41.633  0.00  0.00    +0.000 A 
ATOM      5  C   UNL     1      47.959 163.217  41.429  0.00  0.00    +0.000 A 
ATOM      6  C   UNL     1      49.304 162.886  41.279  0.00  0.00    +0.000 A 
ATOM      7  C   UNL     1      49.706 161.550  41.332  0.00  0.00    +0.005 A 
ENDBRANCH   1   2
BRANCH   1   8
ATOM      8  N   UNL     1      49.405 158.596  42.988  0.00  0.00    -0.290 NA
ATOM      9  C   UNL     1      50.822 158.274  43.185  0.00  0.00    +0.106 C 
BRANCH   8  10
ATOM     10  C   UNL     1      48.555 157.423  43.260  0.00  0.00    +0.173 C 
BRANCH  10  12
ATOM     11  C   UNL     1      48.808 156.580  45.787  0.00  0.00    +0.005 C 
ATOM     12  C   UNL     1      48.690 156.958  44.653  0.00  0.00    -0.090 C 
ENDBRANCH  10  12
ENDBRANCH   8  10
ENDBRANCH   1   8
TORSDOF 4
ENDMDL
MODEL 5
REMARK VINA RESULT:    -5.334      2.062      6.534
REMARK INTER + INTRA:          -6.844
REMARK INTER:                  -6.644
REMARK INTRA:                  -0.200
REMARK UNBOUND:                -0.262
REMARK  Name = 
REMARK  5 active torsions:
REMARK  status: ('A' for Active; 'I' for Inactive)
REMARK    1  A    between atoms: C_2  and  C_3
REMARK    2  A    between atoms: C_3  and  N_4
REMARK    3  A    between atoms: N_4  and  C_5
REMARK    4  A    between atoms: N_4  and  C_6
REMARK    5  A    between atoms: C_6  and  C_7
REMARK                            x       y       z     vdW  Elec       q    Type
REMARK                         _______ _______ _______ _____ _____    ______ ____
ROOT
ATOM      1  C   UNL     1      49.200 159.066  41.682  0.00  0.00    +0.120 C 
ENDROOT
BRANCH   1   2
ATOM      2  C   UNL     1      48.738 160.507  41.600  0.00  0.00    -0.033 A 
ATOM      3  C   UNL     1      49.655 161.541  41.357  0.00  0.00    +0.005 A 
ATOM      4  C   UNL     1      49.225 162.865  41.262  0.00  0.00    +0.000 A 
ATOM      5  C   UNL     1      47.872 163.169  41.399  0.00  0.00    +0.000 A 
ATOM      6  C   UNL     1      46.949 162.151  41.631  0.00  0.00    +0.000 A 
ATOM      7  C   UNL     1      47.378 160.826  41.728  0.00  0.00    +0.005 A 
ENDBRANCH   1   2
BRANCH   1   8
ATOM      8  N   UNL     1      49.407 158.584  43.061  0.00  0.00    -0.290 NA
ATOM      9  C   UNL     1      50.802 158.160  43.222  0.00  0.00    +0.106 C 
BRANCH   8  10
ATOM     10  C   UNL     1      48.481 157.481  43.375  0.00  0.00    +0.173 C 
BRANCH  10  12
ATOM     11  C   UNL     1      48.830 156.573  45.867  0.00  0.00    +0.005 C 
ATOM     12  C   UNL     1      48.673 156.977  44.747  0.00  0.00    -0.090 C 
ENDBRANCH  10  12
ENDBRANCH   8  10
ENDBRANCH   1   8
TORSDOF 4
ENDMDL
MODEL 6
REMARK VINA RESULT:    -5.288      1.260      2.311
REMARK INTER + INTRA:          -6.787
REMARK INTER:                  -6.372
REMARK INTRA:                  -0.415
REMARK UNBOUND:                -0.262
REMARK  Name = 
REMARK  5 active torsions:
REMARK  status: ('A' for Active; 'I' for Inactive)
REMARK    1  A    between atoms: C_2  and  C_3
REMARK    2  A    between atoms: C_3  and  N_4
REMARK    3  A    between atoms: N_4  and  C_5
REMARK    4  A    between atoms: N_4  and  C_6
REMARK    5  A    between atoms: C_6  and  C_7
REMARK                            x       y       z     vdW  Elec       q    Type
REMARK                         _______ _______ _______ _____ _____    ______ ____
ROOT
ATOM      1  C   UNL     1      49.190 157.348  42.642  0.00  0.00    +0.120 C 
ENDROOT
BRANCH   1   2
ATOM      2  C   UNL     1      49.181 156.482  43.885  0.00  0.00    -0.033 A 
ATOM      3  C   UNL     1      49.465 155.110  43.803  0.00  0.00    +0.005 A 
ATOM      4  C   UNL     1      49.477 154.317  44.952  0.00  0.00    +0.000 A 
ATOM      5  C   UNL     1      49.213 154.888  46.195  0.00  0.00    +0.000 A 
ATOM      6  C   UNL     1      48.938 156.251  46.291  0.00  0.00    +0.000 A 
ATOM      7  C   UNL     1      48.925 157.045  45.143  0.00  0.00    +0.005 A 
ENDBRANCH   1   2
BRANCH   1   8
ATOM      8  N   UNL     1      49.382 158.785  42.917  0.00  0.00    -0.290 NA
ATOM      9  C   UNL     1      48.255 159.540  42.358  0.00  0.00    +0.106 C 
BRANCH   8  10
ATOM     10  C   UNL     1      50.662 159.258  42.362  0.00  0.00    +0.173 C 
BRANCH  10  12
ATOM     11  C   UNL     1      52.729 157.825  43.274  0.00  0.00    +0.005 C 
ATOM     12  C   UNL     1      51.803 158.469  42.861  0.00  0.00    -0.090 C 
ENDBRANCH  10  12
ENDBRANCH   8  10
ENDBRANCH   1   8
TORSDOF 4
ENDMDL
MODEL 7
REMARK VINA RESULT:    -5.262      2.452      5.926
REMARK INTER + INTRA:          -6.755
REMARK INTER:                  -6.500
REMARK INTRA:                  -0.255
REMARK UNBOUND:                -0.262
REMARK  Name = 
REMARK  5 active torsions:
REMARK  status: ('A' for Active; 'I' for Inactive)
REMARK    1  A    between atoms: C_2  and  C_3
REMARK    2  A    between atoms: C_3  and  N_4
REMARK    3  A    between atoms: N_4  and  C_5
REMARK    4  A    between atoms: N_4  and  C_6
REMARK    5  A    between atoms: C_6  and  C_7
REMARK                            x       y       z     vdW  Elec       q    Type
REMARK                         _______ _______ _______ _____ _____    ______ ____
ROOT
ATOM      1  C   UNL     1      50.177 157.963  42.097  0.00  0.00    +0.120 C 
ENDROOT
BRANCH   1   2
ATOM      2  C   UNL     1      49.814 159.391  41.744  0.00  0.00    -0.033 A 
ATOM      3  C   UNL     1      48.552 159.699  41.214  0.00  0.00    +0.005 A 
ATOM      4  C   UNL     1      48.212 161.017  40.908  0.00  0.00    +0.000 A 
ATOM      5  C   UNL     1      49.126 162.044  41.137  0.00  0.00    +0.000 A 
ATOM      6  C   UNL     1      50.380 161.753  41.672  0.00  0.00    +0.000 A 
ATOM      7  C   UNL     1      50.722 160.434  41.978  0.00  0.00    +0.005 A 
ENDBRANCH   1   2
BRANCH   1   8
ATOM      8  N   UNL     1      49.231 157.320  43.030  0.00  0.00    -0.290 NA
ATOM      9  C   UNL     1      49.579 157.694  44.405  0.00  0.00    +0.106 C 
BRANCH   8  10
ATOM     10  C   UNL     1      49.242 155.856  42.862  0.00  0.00    +0.173 C 
BRANCH  10  12
ATOM     11  C   UNL     1      51.724 154.860  42.959  0.00  0.00    +0.005 C 
ATOM     12  C   UNL     1      50.610 155.308  42.920  0.00  0.00    -0.090 C 
ENDBRANCH  10  12
ENDBRANCH   8  10
ENDBRANCH   1   8
TORSDOF 4
ENDMDL
MODEL 8
REMARK VINA RESULT:    -5.230      4.028      5.638
REMARK INTER + INTRA:          -6.716
REMARK INTER:                  -6.442
REMARK INTRA:                  -0.274
REMARK UNBOUND:                -0.262
REMARK  Name = 
REMARK  5 active torsions:
REMARK  status: ('A' for Active; 'I' for Inactive)
REMARK    1  A    between atoms: C_2  and  C_3
REMARK    2  A    between atoms: C_3  and  N_4
REMARK    3  A    between atoms: N_4  and  C_5
REMARK    4  A    between atoms: N_4  and  C_6
REMARK    5  A    between atoms: C_6  and  C_7
REMARK                            x       y       z     vdW  Elec       q    Type
REMARK                         _______ _______ _______ _____ _____    ______ ____
ROOT
ATOM      1  C   UNL     1      48.544 160.693  41.200  0.00  0.00    +0.120 C 
ENDROOT
BRANCH   1   2
ATOM      2  C   UNL     1      49.599 159.699  41.643  0.00  0.00    -0.033 A 
ATOM      3  C   UNL     1      49.349 158.319  41.587  0.00  0.00    +0.005 A 
ATOM      4  C   UNL     1      50.329 157.404  41.976  0.00  0.00    +0.000 A 
ATOM      5  C   UNL     1      51.570 157.857  42.416  0.00  0.00    +0.000 A 
ATOM      6  C   UNL     1      51.834 159.225  42.468  0.00  0.00    +0.000 A 
ATOM      7  C   UNL     1      50.856 160.141  42.080  0.00  0.00    +0.005 A 
ENDBRANCH   1   2
BRANCH   1   8
ATOM      8  N   UNL     1      48.652 162.009  41.859  0.00  0.00    -0.290 NA
ATOM      9  C   UNL     1      47.530 162.177  42.790  0.00  0.00    +0.106 C 
BRANCH   8  10
ATOM     10  C   UNL     1      48.677 163.094  40.863  0.00  0.00    +0.173 C 
BRANCH  10  12
ATOM     11  C   UNL     1      46.577 162.986  39.208  0.00  0.00    +0.005 C 
ATOM     12  C   UNL     1      47.519 163.031  39.953  0.00  0.00    -0.090 C 
ENDBRANCH  10  12
ENDBRANCH   8  10
ENDBRANCH   1   8
TORSDOF 4
ENDMDL
MODEL 9
REMARK VINA RESULT:    -5.054      3.613      5.625
REMARK INTER + INTRA:          -6.499
REMARK INTER:                  -6.046
REMARK INTRA:                  -0.452
REMARK UNBOUND:                -0.262
REMARK  Name = 
REMARK  5 active torsions:
REMARK  status: ('A' for Active; 'I' for Inactive)
REMARK    1  A    between atoms: C_2  and  C_3
REMARK    2  A    between atoms: C_3  and  N_4
REMARK    3  A    between atoms: N_4  and  C_5
REMARK    4  A    between atoms: N_4  and  C_6
REMARK    5  A    between atoms: C_6  and  C_7
REMARK                            x       y       z     vdW  Elec       q    Type
REMARK                         _______ _______ _______ _____ _____    ______ ____
ROOT
ATOM      1  C   UNL     1      48.457 161.098  40.934  0.00  0.00    +0.120 C 
ENDROOT
BRANCH   1   2
ATOM      2  C   UNL     1      48.959 159.981  41.827  0.00  0.00    -0.033 A 
ATOM      3  C   UNL     1      48.063 159.064  42.398  0.00  0.00    +0.005 A 
ATOM      4  C   UNL     1      48.529 158.023  43.204  0.00  0.00    +0.000 A 
ATOM      5  C   UNL     1      49.895 157.883  43.441  0.00  0.00    +0.000 A 
ATOM      6  C   UNL     1      50.796 158.782  42.873  0.00  0.00    +0.000 A 
ATOM      7  C   UNL     1      50.332 159.824  42.067  0.00  0.00    +0.005 A 
ENDBRANCH   1   2
BRANCH   1   8
ATOM      8  N   UNL     1      48.154 162.348  41.657  0.00  0.00    -0.290 NA
ATOM      9  C   UNL     1      46.700 162.540  41.703  0.00  0.00    +0.106 C 
BRANCH   8  10
ATOM     10  C   UNL     1      48.818 163.497  41.017  0.00  0.00    +0.173 C 
BRANCH  10  12
ATOM     11  C   UNL     1      51.484 163.299  41.121  0.00  0.00    +0.005 C 
ATOM     12  C   UNL     1      50.287 163.387  41.079  0.00  0.00    -0.090 C 
ENDBRANCH  10  12
ENDBRANCH   8  10
ENDBRANCH   1   8
TORSDOF 4
ENDMDL
