MODEL 1
REMARK VINA RESULT:    -5.367      0.000      0.000
REMARK INTER + INTRA:          -6.245
REMARK INTER:                  -5.995
REMARK INTRA:                  -0.250
REMARK UNBOUND:                -0.250
REMARK  Name = 
REMARK  3 active torsions:
REMARK  status: ('A' for Active; 'I' for Inactive)
REMARK    1  A    between atoms: C_4  and  C_5
REMARK    2  A    between atoms: C_14  and  O_15
REMARK    3  A    between atoms: C_16  and  O_17
REMARK                            x       y       z     vdW  Elec       q    Type
REMARK                         _______ _______ _______ _____ _____    ______ ____
ROOT
ATOM      1  O   UNL     1      -7.424 -23.089  43.179  0.00  0.00    -0.287 OA
ATOM      2  C   UNL     1      -6.532 -23.460  43.929  0.00  0.00    +0.193 A 
ATOM      3  C   UNL     1      -5.166 -23.683  43.431  0.00  0.00    +0.098 A 
ATOM      4  C   UNL     1      -4.216 -24.103  44.279  0.00  0.00    +0.139 A 
ATOM      5  O   UNL     1      -4.423 -24.331  45.631  0.00  0.00    -0.454 OA
ATOM      6  C   UNL     1      -5.683 -24.139  46.141  0.00  0.00    +0.143 A 
ATOM      7  C   UNL     1      -5.859 -24.380  47.504  0.00  0.00    +0.096 A 
ATOM      8  C   UNL     1      -7.115 -24.188  48.065  0.00  0.00    +0.162 A 
ATOM      9  C   UNL     1      -8.194 -23.793  47.276  0.00  0.00    +0.159 A 
ATOM     10  C   UNL     1      -8.025 -23.533  45.923  0.00  0.00    +0.064 A 
ATOM     11  C   UNL     1      -6.758 -23.711  45.360  0.00  0.00    +0.068 A 
ENDROOT
BRANCH   4  12
ATOM     12  C   UNL     1      -2.828 -24.333  43.834  0.00  0.00    +0.017 A 
ATOM     13  C   UNL     1      -1.800 -23.426  44.133  0.00  0.00    +0.011 A 
ATOM     14  C   UNL     1      -0.494 -23.656  43.696  0.00  0.00    +0.001 A 
ATOM     15  C   UNL     1      -0.198 -24.794  42.948  0.00  0.00    +0.000 A 
ATOM     16  C   UNL     1      -1.208 -25.700  42.635  0.00  0.00    +0.001 A 
ATOM     17  C   UNL     1      -2.515 -25.470  43.073  0.00  0.00    +0.011 A 
ENDBRANCH   4  12
BRANCH   8  18
ATOM     18  O   UNL     1      -7.269 -24.364  49.409  0.00  0.00    -0.503 OA
ATOM     19  H   UNL     1      -7.119 -25.312  49.582  0.00  0.00    +0.292 HD
ENDBRANCH   8  18
BRANCH   9  20
ATOM     20  O   UNL     1      -9.441 -23.680  47.819  0.00  0.00    -0.503 OA
ATOM     21  H   UNL     1      -9.945 -23.087  47.232  0.00  0.00    +0.292 HD
ENDBRANCH   9  20
TORSDOF 3
ENDMDL
MODEL 2
REMARK VINA RESULT:    -5.146      1.196      2.633
REMARK INTER + INTRA:          -5.998
REMARK INTER:                  -5.755
REMARK INTRA:                  -0.243
REMARK UNBOUND:                -0.250
REMARK  Name = 
REMARK  3 active torsions:
REMARK  status: ('A' for Active; 'I' for Inactive)
REMARK    1  A    between atoms: C_4  and  C_5
REMARK    2  A    between atoms: C_14  and  O_15
REMARK    3  A    between atoms: C_16  and  O_17
REMARK                            x       y       z     vdW  Elec       q    Type
REMARK                         _______ _______ _______ _____ _____    ______ ____
ROOT
ATOM      1  O   UNL     1      -4.982 -25.306  48.569  0.00  0.00    -0.287 OA
ATOM      2  C   UNL     1      -4.936 -24.904  47.414  0.00  0.00    +0.193 A 
ATOM      3  C   UNL     1      -3.678 -24.937  46.651  0.00  0.00    +0.098 A 
ATOM      4  C   UNL     1      -3.660 -24.477  45.392  0.00  0.00    +0.139 A 
ATOM      5  O   UNL     1      -4.771 -23.975  44.729  0.00  0.00    -0.454 OA
ATOM      6  C   UNL     1      -5.966 -23.923  45.402  0.00  0.00    +0.143 A 
ATOM      7  C   UNL     1      -7.063 -23.411  44.709  0.00  0.00    +0.096 A 
ATOM      8  C   UNL     1      -8.295 -23.350  45.348  0.00  0.00    +0.162 A 
ATOM      9  C   UNL     1      -8.430 -23.761  46.673  0.00  0.00    +0.159 A 
ATOM     10  C   UNL     1      -7.350 -24.288  47.365  0.00  0.00    +0.064 A 
ATOM     11  C   UNL     1      -6.113 -24.365  46.719  0.00  0.00    +0.068 A 
ENDROOT
BRANCH   4  12
ATOM     12  C   UNL     1      -2.429 -24.493  44.578  0.00  0.00    +0.017 A 
ATOM     13  C   UNL     1      -1.563 -23.391  44.534  0.00  0.00    +0.011 A 
ATOM     14  C   UNL     1      -0.407 -23.421  43.750  0.00  0.00    +0.001 A 
ATOM     15  C   UNL     1      -0.105 -24.553  42.995  0.00  0.00    +0.000 A 
ATOM     16  C   UNL     1      -0.959 -25.652  43.020  0.00  0.00    +0.001 A 
ATOM     17  C   UNL     1      -2.116 -25.621  43.804  0.00  0.00    +0.011 A 
ENDBRANCH   4  12
BRANCH   8  18
ATOM     18  O   UNL     1      -9.378 -22.908  44.646  0.00  0.00    -0.503 OA
ATOM     19  H   UNL     1     -10.075 -22.724  45.302  0.00  0.00    +0.292 HD
ENDBRANCH   8  18
BRANCH   9  20
ATOM     20  O   UNL     1      -9.625 -23.627  47.318  0.00  0.00    -0.503 OA
ATOM     21  H   UNL     1      -9.443 -23.754  48.267  0.00  0.00    +0.292 HD
ENDBRANCH   9  20
TORSDOF 3
ENDMDL
MODEL 3
REMARK VINA RESULT:    -5.119      3.529      6.143
REMARK INTER + INTRA:          -5.967
REMARK INTER:                  -5.720
REMARK INTRA:                  -0.247
REMARK UNBOUND:                -0.250
REMARK  Name = 
REMARK  3 active torsions:
REMARK  status: ('A' for Active; 'I' for Inactive)
REMARK    1  A    between atoms: C_4  and  C_5
REMARK    2  A    between atoms: C_14  and  O_15
REMARK    3  A    between atoms: C_16  and  O_17
REMARK                            x       y       z     vdW  Elec       q    Type
REMARK                         _______ _______ _______ _____ _____    ______ ____
ROOT
ATOM      1  O   UNL     1      -0.314 -22.381  47.807  0.00  0.00    -0.287 OA
ATOM      2  C   UNL     1      -0.242 -22.500  46.592  0.00  0.00    +0.193 A 
ATOM      3  C   UNL     1       0.803 -21.804  45.823  0.00  0.00    +0.098 A 
ATOM      4  C   UNL     1       0.844 -21.947  44.490  0.00  0.00    +0.139 A 
ATOM      5  O   UNL     1      -0.034 -22.736  43.763  0.00  0.00    -0.454 OA
ATOM      6  C   UNL     1      -1.027 -23.402  44.437  0.00  0.00    +0.143 A 
ATOM      7  C   UNL     1      -1.896 -24.186  43.676  0.00  0.00    +0.096 A 
ATOM      8  C   UNL     1      -2.908 -24.886  44.319  0.00  0.00    +0.162 A 
ATOM      9  C   UNL     1      -3.080 -24.785  45.699  0.00  0.00    +0.159 A 
ATOM     10  C   UNL     1      -2.210 -24.023  46.466  0.00  0.00    +0.064 A 
ATOM     11  C   UNL     1      -1.181 -23.330  45.823  0.00  0.00    +0.068 A 
ENDROOT
BRANCH   4  12
ATOM     12  C   UNL     1       1.874 -21.280  43.672  0.00  0.00    +0.017 A 
ATOM     13  C   UNL     1       2.950 -21.993  43.120  0.00  0.00    +0.011 A 
ATOM     14  C   UNL     1       3.922 -21.342  42.356  0.00  0.00    +0.001 A 
ATOM     15  C   UNL     1       3.834 -19.969  42.137  0.00  0.00    +0.000 A 
ATOM     16  C   UNL     1       2.778 -19.245  42.684  0.00  0.00    +0.001 A 
ATOM     17  C   UNL     1       1.806 -19.896  43.450  0.00  0.00    +0.011 A 
ENDBRANCH   4  12
BRANCH   8  18
ATOM     18  O   UNL     1      -3.716 -25.700  43.579  0.00  0.00    -0.503 OA
ATOM     19  H   UNL     1      -3.917 -25.215  42.757  0.00  0.00    +0.292 HD
ENDBRANCH   8  18
BRANCH   9  20
ATOM     20  O   UNL     1      -4.123 -25.415  46.312  0.00  0.00    -0.503 OA
ATOM     21  H   UNL     1      -4.621 -25.872  45.609  0.00  0.00    +0.292 HD
ENDBRANCH   9  20
TORSDOF 3
ENDMDL
MODEL 4
REMARK VINA RESULT:    -5.105      2.035      2.844
REMARK INTER + INTRA:          -5.952
REMARK INTER:                  -5.674
REMARK INTRA:                  -0.278
REMARK UNBOUND:                -0.250
REMARK  Name = 
REMARK  3 active torsions:
REMARK  status: ('A' for Active; 'I' for Inactive)
REMARK    1  A    between atoms: C_4  and  C_5
REMARK    2  A    between atoms: C_14  and  O_15
REMARK    3  A    between atoms: C_16  and  O_17
REMARK                            x       y       z     vdW  Elec       q    Type
REMARK                         _______ _______ _______ _____ _____    ______ ____
ROOT
ATOM      1  O   UNL     1      -6.508 -22.766  46.425  0.00  0.00    -0.287 OA
ATOM      2  C   UNL     1      -5.529 -23.496  46.500  0.00  0.00    +0.193 A 
ATOM      3  C   UNL     1      -4.745 -23.838  45.302  0.00  0.00    +0.098 A 
ATOM      4  C   UNL     1      -3.685 -24.651  45.420  0.00  0.00    +0.139 A 
ATOM      5  O   UNL     1      -3.248 -25.195  46.618  0.00  0.00    -0.454 OA
ATOM      6  C   UNL     1      -3.950 -24.905  47.762  0.00  0.00    +0.143 A 
ATOM      7  C   UNL     1      -3.486 -25.470  48.951  0.00  0.00    +0.096 A 
ATOM      8  C   UNL     1      -4.159 -25.194  50.134  0.00  0.00    +0.162 A 
ATOM      9  C   UNL     1      -5.301 -24.395  50.135  0.00  0.00    +0.159 A 
ATOM     10  C   UNL     1      -5.760 -23.815  48.961  0.00  0.00    +0.064 A 
ATOM     11  C   UNL     1      -5.074 -24.078  47.771  0.00  0.00    +0.068 A 
ENDROOT
BRANCH   4  12
ATOM     12  C   UNL     1      -2.859 -25.020  44.254  0.00  0.00    +0.017 A 
ATOM     13  C   UNL     1      -1.466 -25.157  44.354  0.00  0.00    +0.011 A 
ATOM     14  C   UNL     1      -0.700 -25.497  43.237  0.00  0.00    +0.001 A 
ATOM     15  C   UNL     1      -1.315 -25.700  42.003  0.00  0.00    +0.000 A 
ATOM     16  C   UNL     1      -2.695 -25.559  41.885  0.00  0.00    +0.001 A 
ATOM     17  C   UNL     1      -3.462 -25.218  43.002  0.00  0.00    +0.011 A 
ENDBRANCH   4  12
BRANCH   8  18
ATOM     18  O   UNL     1      -3.666 -25.697  51.303  0.00  0.00    -0.503 OA
ATOM     19  H   UNL     1      -4.121 -26.547  51.452  0.00  0.00    +0.292 HD
ENDBRANCH   8  18
BRANCH   9  20
ATOM     20  O   UNL     1      -6.000 -24.192  51.289  0.00  0.00    -0.503 OA
ATOM     21  H   UNL     1      -5.367 -23.828  51.935  0.00  0.00    +0.292 HD
ENDBRANCH   9  20
TORSDOF 3
ENDMDL
MODEL 5
REMARK VINA RESULT:    -5.062      4.888      7.914
REMARK INTER + INTRA:          -5.904
REMARK INTER:                  -5.628
REMARK INTRA:                  -0.276
REMARK UNBOUND:                -0.250
REMARK  Name = 
REMARK  3 active torsions:
REMARK  status: ('A' for Active; 'I' for Inactive)
REMARK    1  A    between atoms: C_4  and  C_5
REMARK    2  A    between atoms: C_14  and  O_15
REMARK    3  A    between atoms: C_16  and  O_17
REMARK                            x       y       z     vdW  Elec       q    Type
REMARK                         _______ _______ _______ _____ _____    ______ ____
ROOT
ATOM      1  O   UNL     1       3.576 -21.435  43.447  0.00  0.00    -0.287 OA
ATOM      2  C   UNL     1       2.554 -21.691  44.069  0.00  0.00    +0.193 A 
ATOM      3  C   UNL     1       1.519 -22.568  43.496  0.00  0.00    +0.098 A 
ATOM      4  C   UNL     1       0.405 -22.817  44.200  0.00  0.00    +0.139 A 
ATOM      5  O   UNL     1       0.155 -22.314  45.468  0.00  0.00    -0.454 OA
ATOM      6  C   UNL     1       1.091 -21.490  46.041  0.00  0.00    +0.143 A 
ATOM      7  C   UNL     1       0.807 -20.999  47.316  0.00  0.00    +0.096 A 
ATOM      8  C   UNL     1       1.731 -20.170  47.939  0.00  0.00    +0.162 A 
ATOM      9  C   UNL     1       2.910 -19.804  47.291  0.00  0.00    +0.159 A 
ATOM     10  C   UNL     1       3.209 -20.302  46.031  0.00  0.00    +0.064 A 
ATOM     11  C   UNL     1       2.287 -21.149  45.409  0.00  0.00    +0.068 A 
ENDROOT
BRANCH   4  12
ATOM     12  C   UNL     1      -0.660 -23.695  43.678  0.00  0.00    +0.017 A 
ATOM     13  C   UNL     1      -2.017 -23.418  43.905  0.00  0.00    +0.011 A 
ATOM     14  C   UNL     1      -3.011 -24.266  43.411  0.00  0.00    +0.001 A 
ATOM     15  C   UNL     1      -2.662 -25.406  42.689  0.00  0.00    +0.000 A 
ATOM     16  C   UNL     1      -1.320 -25.700  42.463  0.00  0.00    +0.001 A 
ATOM     17  C   UNL     1      -0.325 -24.852  42.957  0.00  0.00    +0.011 A 
ENDBRANCH   4  12
BRANCH   8  18
ATOM     18  O   UNL     1       1.479 -19.742  49.210  0.00  0.00    -0.503 OA
ATOM     19  H   UNL     1       0.758 -19.089  49.143  0.00  0.00    +0.292 HD
ENDBRANCH   8  18
BRANCH   9  20
ATOM     20  O   UNL     1       3.777 -18.929  47.878  0.00  0.00    -0.503 OA
ATOM     21  H   UNL     1       4.191 -19.407  48.619  0.00  0.00    +0.292 HD
ENDBRANCH   9  20
TORSDOF 3
ENDMDL
MODEL 6
REMARK VINA RESULT:    -5.005      7.802     10.363
REMARK INTER + INTRA:          -5.841
REMARK INTER:                  -5.549
REMARK INTRA:                  -0.291
REMARK UNBOUND:                -0.250
REMARK  Name = 
REMARK  3 active torsions:
REMARK  status: ('A' for Active; 'I' for Inactive)
REMARK    1  A    between atoms: C_4  and  C_5
REMARK    2  A    between atoms: C_14  and  O_15
REMARK    3  A    between atoms: C_16  and  O_17
REMARK                            x       y       z     vdW  Elec       q    Type
REMARK                         _______ _______ _______ _____ _____    ______ ____
ROOT
ATOM      1  O   UNL     1      -0.573 -19.095  48.035  0.00  0.00    -0.287 OA
ATOM      2  C   UNL     1       0.345 -19.787  48.454  0.00  0.00    +0.193 A 
ATOM      3  C   UNL     1       0.492 -20.062  49.892  0.00  0.00    +0.098 A 
ATOM      4  C   UNL     1       1.518 -20.814  50.317  0.00  0.00    +0.139 A 
ATOM      5  O   UNL     1       2.466 -21.384  49.481  0.00  0.00    -0.454 OA
ATOM      6  C   UNL     1       2.370 -21.154  48.131  0.00  0.00    +0.143 A 
ATOM      7  C   UNL     1       3.341 -21.739  47.317  0.00  0.00    +0.096 A 
ATOM      8  C   UNL     1       3.277 -21.541  45.944  0.00  0.00    +0.162 A 
ATOM      9  C   UNL     1       2.280 -20.743  45.386  0.00  0.00    +0.159 A 
ATOM     10  C   UNL     1       1.300 -20.171  46.184  0.00  0.00    +0.064 A 
ATOM     11  C   UNL     1       1.354 -20.382  47.565  0.00  0.00    +0.068 A 
ENDROOT
BRANCH   4  12
ATOM     12  C   UNL     1       1.708 -21.127  51.747  0.00  0.00    +0.017 A 
ATOM     13  C   UNL     1       2.550 -22.170  52.164  0.00  0.00    +0.011 A 
ATOM     14  C   UNL     1       2.710 -22.458  53.522  0.00  0.00    +0.001 A 
ATOM     15  C   UNL     1       2.026 -21.712  54.479  0.00  0.00    +0.000 A 
ATOM     16  C   UNL     1       1.181 -20.680  54.082  0.00  0.00    +0.001 A 
ATOM     17  C   UNL     1       1.020 -20.391  52.723  0.00  0.00    +0.011 A 
ENDBRANCH   4  12
BRANCH   8  18
ATOM     18  O   UNL     1       4.191 -22.166  45.147  0.00  0.00    -0.503 OA
ATOM     19  H   UNL     1       3.977 -23.117  45.175  0.00  0.00    +0.292 HD
ENDBRANCH   8  18
BRANCH   9  20
ATOM     20  O   UNL     1       2.269 -20.491  44.044  0.00  0.00    -0.503 OA
ATOM     21  H   UNL     1       1.597 -21.083  43.659  0.00  0.00    +0.292 HD
ENDBRANCH   9  20
TORSDOF 3
ENDMDL
MODEL 7
REMARK VINA RESULT:    -4.816      4.759      7.018
REMARK INTER + INTRA:          -5.629
REMARK INTER:                  -5.380
REMARK INTRA:                  -0.249
REMARK UNBOUND:                -0.250
REMARK  Name = 
REMARK  3 active torsions:
REMARK  status: ('A' for Active; 'I' for Inactive)
REMARK    1  A    between atoms: C_4  and  C_5
REMARK    2  A    between atoms: C_14  and  O_15
REMARK    3  A    between atoms: C_16  and  O_17
REMARK                            x       y       z     vdW  Elec       q    Type
REMARK                         _______ _______ _______ _____ _____    ______ ____
ROOT
ATOM      1  O   UNL     1       0.851 -21.426  43.952  0.00  0.00    -0.287 OA
ATOM      2  C   UNL     1       0.417 -21.904  44.991  0.00  0.00    +0.193 A 
ATOM      3  C   UNL     1       0.950 -21.487  46.297  0.00  0.00    +0.098 A 
ATOM      4  C   UNL     1       0.460 -22.041  47.416  0.00  0.00    +0.139 A 
ATOM      5  O   UNL     1      -0.553 -22.988  47.437  0.00  0.00    -0.454 OA
ATOM      6  C   UNL     1      -1.080 -23.409  46.242  0.00  0.00    +0.143 A 
ATOM      7  C   UNL     1      -2.095 -24.366  46.298  0.00  0.00    +0.096 A 
ATOM      8  C   UNL     1      -2.665 -24.812  45.113  0.00  0.00    +0.162 A 
ATOM      9  C   UNL     1      -2.210 -24.341  43.882  0.00  0.00    +0.159 A 
ATOM     10  C   UNL     1      -1.214 -23.377  43.817  0.00  0.00    +0.064 A 
ATOM     11  C   UNL     1      -0.650 -22.915  45.009  0.00  0.00    +0.068 A 
ENDROOT
BRANCH   4  12
ATOM     12  C   UNL     1       0.952 -21.654  48.752  0.00  0.00    +0.017 A 
ATOM     13  C   UNL     1       0.568 -20.447  49.355  0.00  0.00    +0.011 A 
ATOM     14  C   UNL     1       1.052 -20.093  50.617  0.00  0.00    +0.001 A 
ATOM     15  C   UNL     1       1.932 -20.938  51.290  0.00  0.00    +0.000 A 
ATOM     16  C   UNL     1       2.330 -22.135  50.701  0.00  0.00    +0.001 A 
ATOM     17  C   UNL     1       1.846 -22.490  49.439  0.00  0.00    +0.011 A 
ENDBRANCH   4  12
BRANCH   8  18
ATOM     18  O   UNL     1      -3.699 -25.700  45.175  0.00  0.00    -0.503 OA
ATOM     19  H   UNL     1      -4.238 -25.443  45.947  0.00  0.00    +0.292 HD
ENDBRANCH   8  18
BRANCH   9  20
ATOM     20  O   UNL     1      -2.723 -24.841  42.721  0.00  0.00    -0.503 OA
ATOM     21  H   UNL     1      -3.156 -25.684  42.950  0.00  0.00    +0.292 HD
ENDBRANCH   9  20
TORSDOF 3
ENDMDL
MODEL 8
REMARK VINA RESULT:    -3.497      1.589      2.949
REMARK INTER + INTRA:          -4.156
REMARK INTER:                  -3.861
REMARK INTRA:                  -0.295
REMARK UNBOUND:                -0.250
REMARK  Name = 
REMARK  3 active torsions:
REMARK  status: ('A' for Active; 'I' for Inactive)
REMARK    1  A    between atoms: C_4  and  C_5
REMARK    2  A    between atoms: C_14  and  O_15
REMARK    3  A    between atoms: C_16  and  O_17
REMARK                            x       y       z     vdW  Elec       q    Type
REMARK                         _______ _______ _______ _____ _____    ______ ____
ROOT
ATOM      1  O   UNL     1      -3.545 -24.394  49.434  0.00  0.00    -0.287 OA
ATOM      2  C   UNL     1      -3.999 -24.456  48.300  0.00  0.00    +0.193 A 
ATOM      3  C   UNL     1      -3.129 -24.754  47.151  0.00  0.00    +0.098 A 
ATOM      4  C   UNL     1      -3.658 -24.802  45.920  0.00  0.00    +0.139 A 
ATOM      5  O   UNL     1      -5.002 -24.604  45.640  0.00  0.00    -0.454 OA
ATOM      6  C   UNL     1      -5.852 -24.321  46.681  0.00  0.00    +0.143 A 
ATOM      7  C   UNL     1      -7.197 -24.125  46.366  0.00  0.00    +0.096 A 
ATOM      8  C   UNL     1      -8.094 -23.848  47.389  0.00  0.00    +0.162 A 
ATOM      9  C   UNL     1      -7.657 -23.731  48.708  0.00  0.00    +0.159 A 
ATOM     10  C   UNL     1      -6.325 -23.942  49.033  0.00  0.00    +0.064 A 
ATOM     11  C   UNL     1      -5.423 -24.237  48.007  0.00  0.00    +0.068 A 
ENDROOT
BRANCH   4  12
ATOM     12  C   UNL     1      -2.834 -25.104  44.734  0.00  0.00    +0.017 A 
ATOM     13  C   UNL     1      -1.473 -25.426  44.848  0.00  0.00    +0.011 A 
ATOM     14  C   UNL     1      -0.706 -25.700  43.713  0.00  0.00    +0.001 A 
ATOM     15  C   UNL     1      -1.288 -25.651  42.448  0.00  0.00    +0.000 A 
ATOM     16  C   UNL     1      -2.635 -25.324  42.317  0.00  0.00    +0.001 A 
ATOM     17  C   UNL     1      -3.403 -25.050  43.452  0.00  0.00    +0.011 A 
ENDBRANCH   4  12
BRANCH   8  18
ATOM     18  O   UNL     1      -9.418 -23.719  47.085  0.00  0.00    -0.503 OA
ATOM     19  H   UNL     1      -9.712 -22.878  47.482  0.00  0.00    +0.292 HD
ENDBRANCH   8  18
BRANCH   9  20
ATOM     20  O   UNL     1      -8.531 -23.383  49.696  0.00  0.00    -0.503 OA
ATOM     21  H   UNL     1      -9.114 -22.698  49.320  0.00  0.00    +0.292 HD
ENDBRANCH   9  20
TORSDOF 3
ENDMDL
