MODEL 1
REMARK VINA RESULT:    -4.537      0.000      0.000
REMARK INTER + INTRA:          -8.120
REMARK INTER:                  -6.129
REMARK INTRA:                  -1.992
REMARK UNBOUND:                -1.992
REMARK  Name = 
REMARK  8 active torsions:
REMARK  status: ('A' for Active; 'I' for Inactive)
REMARK    1  A    between atoms: C_1  and  O_2
REMARK    2  A    between atoms: O_2  and  C_3
REMARK    3  A    between atoms: C_8  and  O_9
REMARK    4  A    between atoms: O_9  and  C_10
REMARK    5  A    between atoms: C_12  and  C_13
REMARK    6  A    between atoms: C_13  and  C_14
REMARK    7  A    between atoms: C_14  and  C_16
REMARK    8  A    between atoms: C_16  and  C_17
REMARK                            x       y       z     vdW  Elec       q    Type
REMARK                         _______ _______ _______ _____ _____    ______ ____
ROOT
ATOM      1  C   UNL     1       1.807 -21.320  43.642  0.00  0.00    +0.162 A 
ATOM      2  C   UNL     1       1.321 -22.632  43.717  0.00  0.00    +0.053 A 
ATOM      3  C   UNL     1      -0.047 -22.830  43.834  0.00  0.00    -0.040 A 
ATOM      4  C   UNL     1      -0.929 -21.751  43.891  0.00  0.00    -0.040 A 
ATOM      5  C   UNL     1      -0.469 -20.445  43.831  0.00  0.00    +0.053 A 
ATOM      6  C   UNL     1       0.908 -20.222  43.699  0.00  0.00    +0.162 A 
ATOM      7  C   UNL     1      -2.344 -22.218  44.061  0.00  0.00    +0.039 C 
ATOM      8  C   UNL     1      -2.219 -23.696  43.628  0.00  0.00    +0.005 C 
ATOM      9  C   UNL     1      -0.776 -24.133  43.961  0.00  0.00    +0.039 C 
ENDROOT
BRANCH   1  11
ATOM     10  C   UNL     1       3.855 -21.585  42.440  0.00  0.00    +0.277 C 
ATOM     11  O   UNL     1       3.137 -20.997  43.515  0.00  0.00    -0.491 OA
ENDBRANCH   1  11
BRANCH   6  12
ATOM     12  O   UNL     1       1.483 -18.975  43.619  0.00  0.00    -0.491 OA
ATOM     13  C   UNL     1       1.333 -18.260  42.403  0.00  0.00    +0.277 C 
ENDBRANCH   6  12
BRANCH   8  14
ATOM     14  C   UNL     1      -3.318 -24.621  44.149  0.00  0.00    +0.078 C 
BRANCH  14  15
ATOM     15  C   UNL     1      -4.049 -24.188  45.416  0.00  0.00    +0.138 C 
ATOM     16  O   UNL     1      -5.122 -23.592  45.379  0.00  0.00    -0.297 OA
BRANCH  15  17
ATOM     17  C   UNL     1      -3.342 -24.549  46.715  0.00  0.00    +0.109 C 
BRANCH  17  18
ATOM     18  C   UNL     1      -2.384 -23.502  47.227  0.00  0.00    -0.040 A 
ATOM     19  C   UNL     1      -2.850 -22.232  47.595  0.00  0.00    +0.004 A 
ATOM     20  C   UNL     1      -1.964 -21.266  48.073  0.00  0.00    +0.000 A 
ATOM     21  C   UNL     1      -0.607 -21.559  48.192  0.00  0.00    +0.000 A 
ATOM     22  C   UNL     1      -0.134 -22.821  47.838  0.00  0.00    +0.000 A 
ATOM     23  C   UNL     1      -1.019 -23.790  47.360  0.00  0.00    +0.004 A 
ENDBRANCH  17  18
ENDBRANCH  15  17
ENDBRANCH  14  15
ENDBRANCH   8  14
TORSDOF 6
ENDMDL
MODEL 2
REMARK VINA RESULT:    -4.305      1.849      3.609
REMARK INTER + INTRA:          -7.807
REMARK INTER:                  -5.917
REMARK INTRA:                  -1.890
REMARK UNBOUND:                -1.992
REMARK  Name = 
REMARK  8 active torsions:
REMARK  status: ('A' for Active; 'I' for Inactive)
REMARK    1  A    between atoms: C_1  and  O_2
REMARK    2  A    between atoms: O_2  and  C_3
REMARK    3  A    between atoms: C_8  and  O_9
REMARK    4  A    between atoms: O_9  and  C_10
REMARK    5  A    between atoms: C_12  and  C_13
REMARK    6  A    between atoms: C_13  and  C_14
REMARK    7  A    between atoms: C_14  and  C_16
REMARK    8  A    between atoms: C_16  and  C_17
REMARK                            x       y       z     vdW  Elec       q    Type
REMARK                         _______ _______ _______ _____ _____    ______ ____
ROOT
ATOM      1  C   UNL     1       1.865 -21.769  44.864  0.00  0.00    +0.162 A 
ATOM      2  C   UNL     1       0.788 -21.784  43.968  0.00  0.00    +0.053 A 
ATOM      3  C   UNL     1      -0.495 -21.616  44.464  0.00  0.00    -0.040 A 
ATOM      4  C   UNL     1      -0.723 -21.447  45.831  0.00  0.00    -0.040 A 
ATOM      5  C   UNL     1       0.326 -21.442  46.737  0.00  0.00    +0.053 A 
ATOM      6  C   UNL     1       1.633 -21.597  46.255  0.00  0.00    +0.162 A 
ATOM      7  C   UNL     1      -2.189 -21.329  46.124  0.00  0.00    +0.039 C 
ATOM      8  C   UNL     1      -2.741 -20.983  44.724  0.00  0.00    +0.005 C 
ATOM      9  C   UNL     1      -1.784 -21.629  43.699  0.00  0.00    +0.039 C 
ENDROOT
BRANCH   1  11
ATOM     10  C   UNL     1       3.512 -21.655  43.136  0.00  0.00    +0.277 C 
ATOM     11  O   UNL     1       3.181 -21.916  44.492  0.00  0.00    -0.491 OA
ENDBRANCH   1  11
BRANCH   6  12
ATOM     12  O   UNL     1       2.753 -21.599  47.053  0.00  0.00    -0.491 OA
ATOM     13  C   UNL     1       2.655 -22.229  48.321  0.00  0.00    +0.277 C 
ENDBRANCH   6  12
BRANCH   8  14
ATOM     14  C   UNL     1      -4.223 -21.290  44.515  0.00  0.00    +0.078 C 
BRANCH  14  15
ATOM     15  C   UNL     1      -4.787 -22.514  45.230  0.00  0.00    +0.138 C 
ATOM     16  O   UNL     1      -5.161 -22.471  46.400  0.00  0.00    -0.297 OA
BRANCH  15  17
ATOM     17  C   UNL     1      -4.842 -23.779  44.384  0.00  0.00    +0.109 C 
BRANCH  17  18
ATOM     18  C   UNL     1      -3.508 -24.446  44.157  0.00  0.00    -0.040 A 
ATOM     19  C   UNL     1      -2.677 -24.761  45.241  0.00  0.00    +0.004 A 
ATOM     20  C   UNL     1      -1.445 -25.382  45.029  0.00  0.00    +0.000 A 
ATOM     21  C   UNL     1      -1.035 -25.700  43.736  0.00  0.00    +0.000 A 
ATOM     22  C   UNL     1      -1.858 -25.400  42.652  0.00  0.00    +0.000 A 
ATOM     23  C   UNL     1      -3.091 -24.778  42.861  0.00  0.00    +0.004 A 
ENDBRANCH  17  18
ENDBRANCH  15  17
ENDBRANCH  14  15
ENDBRANCH   8  14
TORSDOF 6
ENDMDL
MODEL 3
REMARK VINA RESULT:    -4.281      2.360      4.766
REMARK INTER + INTRA:          -7.774
REMARK INTER:                  -5.884
REMARK INTRA:                  -1.890
REMARK UNBOUND:                -1.992
REMARK  Name = 
REMARK  8 active torsions:
REMARK  status: ('A' for Active; 'I' for Inactive)
REMARK    1  A    between atoms: C_1  and  O_2
REMARK    2  A    between atoms: O_2  and  C_3
REMARK    3  A    between atoms: C_8  and  O_9
REMARK    4  A    between atoms: O_9  and  C_10
REMARK    5  A    between atoms: C_12  and  C_13
REMARK    6  A    between atoms: C_13  and  C_14
REMARK    7  A    between atoms: C_14  and  C_16
REMARK    8  A    between atoms: C_16  and  C_17
REMARK                            x       y       z     vdW  Elec       q    Type
REMARK                         _______ _______ _______ _____ _____    ______ ____
ROOT
ATOM      1  C   UNL     1      -0.026 -20.616  48.657  0.00  0.00    +0.162 A 
ATOM      2  C   UNL     1      -1.347 -20.677  48.195  0.00  0.00    +0.053 A 
ATOM      3  C   UNL     1      -1.845 -21.894  47.756  0.00  0.00    -0.040 A 
ATOM      4  C   UNL     1      -1.049 -23.040  47.756  0.00  0.00    -0.040 A 
ATOM      5  C   UNL     1       0.264 -23.001  48.197  0.00  0.00    +0.053 A 
ATOM      6  C   UNL     1       0.784 -21.783  48.658  0.00  0.00    +0.162 A 
ATOM      7  C   UNL     1      -1.794 -24.215  47.197  0.00  0.00    +0.039 C 
ATOM      8  C   UNL     1      -3.253 -23.719  47.311  0.00  0.00    +0.005 C 
ATOM      9  C   UNL     1      -3.206 -22.180  47.196  0.00  0.00    +0.039 C 
ENDROOT
BRANCH   1  11
ATOM     10  C   UNL     1       1.041 -18.536  48.166  0.00  0.00    +0.277 C 
ATOM     11  O   UNL     1       0.576 -19.472  49.126  0.00  0.00    -0.491 OA
ENDBRANCH   1  11
BRANCH   6  12
ATOM     12  O   UNL     1       2.066 -21.621  49.128  0.00  0.00    -0.491 OA
ATOM     13  C   UNL     1       2.721 -22.764  49.655  0.00  0.00    +0.277 C 
ENDBRANCH   6  12
BRANCH   8  14
ATOM     14  C   UNL     1      -4.250 -24.411  46.382  0.00  0.00    +0.078 C 
BRANCH  14  15
ATOM     15  C   UNL     1      -4.763 -23.608  45.191  0.00  0.00    +0.138 C 
ATOM     16  O   UNL     1      -5.646 -22.762  45.306  0.00  0.00    -0.297 OA
BRANCH  15  17
ATOM     17  C   UNL     1      -4.100 -23.943  43.862  0.00  0.00    +0.109 C 
BRANCH  17  18
ATOM     18  C   UNL     1      -2.629 -23.619  43.790  0.00  0.00    -0.040 A 
ATOM     19  C   UNL     1      -2.179 -22.307  43.994  0.00  0.00    +0.004 A 
ATOM     20  C   UNL     1      -0.816 -22.010  43.932  0.00  0.00    +0.000 A 
ATOM     21  C   UNL     1       0.108 -23.019  43.671  0.00  0.00    +0.000 A 
ATOM     22  C   UNL     1      -0.327 -24.328  43.477  0.00  0.00    +0.000 A 
ATOM     23  C   UNL     1      -1.689 -24.629  43.538  0.00  0.00    +0.004 A 
ENDBRANCH  17  18
ENDBRANCH  15  17
ENDBRANCH  14  15
ENDBRANCH   8  14
TORSDOF 6
ENDMDL
MODEL 4
REMARK VINA RESULT:    -4.209      2.689      4.144
REMARK INTER + INTRA:          -7.677
REMARK INTER:                  -5.699
REMARK INTRA:                  -1.978
REMARK UNBOUND:                -1.992
REMARK  Name = 
REMARK  8 active torsions:
REMARK  status: ('A' for Active; 'I' for Inactive)
REMARK    1  A    between atoms: C_1  and  O_2
REMARK    2  A    between atoms: O_2  and  C_3
REMARK    3  A    between atoms: C_8  and  O_9
REMARK    4  A    between atoms: O_9  and  C_10
REMARK    5  A    between atoms: C_12  and  C_13
REMARK    6  A    between atoms: C_13  and  C_14
REMARK    7  A    between atoms: C_14  and  C_16
REMARK    8  A    between atoms: C_16  and  C_17
REMARK                            x       y       z     vdW  Elec       q    Type
REMARK                         _______ _______ _______ _____ _____    ______ ____
ROOT
ATOM      1  C   UNL     1      -1.575 -23.893  43.881  0.00  0.00    +0.162 A 
ATOM      2  C   UNL     1      -2.898 -24.290  43.649  0.00  0.00    +0.053 A 
ATOM      3  C   UNL     1      -3.922 -23.588  44.266  0.00  0.00    -0.040 A 
ATOM      4  C   UNL     1      -3.651 -22.515  45.115  0.00  0.00    -0.040 A 
ATOM      5  C   UNL     1      -2.349 -22.113  45.368  0.00  0.00    +0.053 A 
ATOM      6  C   UNL     1      -1.299 -22.800  44.745  0.00  0.00    +0.162 A 
ATOM      7  C   UNL     1      -4.914 -21.949  45.692  0.00  0.00    +0.039 C 
ATOM      8  C   UNL     1      -5.965 -22.522  44.716  0.00  0.00    +0.005 C 
ATOM      9  C   UNL     1      -5.395 -23.856  44.186  0.00  0.00    +0.039 C 
ENDROOT
BRANCH   1  11
ATOM     10  C   UNL     1      -0.694 -25.699  42.587  0.00  0.00    +0.277 C 
ATOM     11  O   UNL     1      -0.477 -24.502  43.320  0.00  0.00    -0.491 OA
ENDBRANCH   1  11
BRANCH   6  12
ATOM     12  O   UNL     1       0.031 -22.489  44.910  0.00  0.00    -0.491 OA
ATOM     13  C   UNL     1       0.482 -21.244  44.401  0.00  0.00    +0.277 C 
ENDBRANCH   6  12
BRANCH   8  14
ATOM     14  C   UNL     1      -7.390 -22.594  45.263  0.00  0.00    +0.078 C 
BRANCH  14  15
ATOM     15  C   UNL     1      -7.823 -23.909  45.905  0.00  0.00    +0.138 C 
ATOM     16  O   UNL     1      -8.290 -24.834  45.246  0.00  0.00    -0.297 OA
BRANCH  15  17
ATOM     17  C   UNL     1      -7.633 -23.974  47.414  0.00  0.00    +0.109 C 
BRANCH  17  18
ATOM     18  C   UNL     1      -6.212 -24.207  47.863  0.00  0.00    -0.040 A 
ATOM     19  C   UNL     1      -5.630 -23.384  48.837  0.00  0.00    +0.004 A 
ATOM     20  C   UNL     1      -4.316 -23.604  49.255  0.00  0.00    +0.000 A 
ATOM     21  C   UNL     1      -3.575 -24.650  48.709  0.00  0.00    +0.000 A 
ATOM     22  C   UNL     1      -4.147 -25.481  47.748  0.00  0.00    +0.000 A 
ATOM     23  C   UNL     1      -5.461 -25.263  47.328  0.00  0.00    +0.004 A 
ENDBRANCH  17  18
ENDBRANCH  15  17
ENDBRANCH  14  15
ENDBRANCH   8  14
TORSDOF 6
ENDMDL
MODEL 5
REMARK VINA RESULT:    -4.187      2.190      6.858
REMARK INTER + INTRA:          -7.648
REMARK INTER:                  -5.992
REMARK INTRA:                  -1.656
REMARK UNBOUND:                -1.992
REMARK  Name = 
REMARK  8 active torsions:
REMARK  status: ('A' for Active; 'I' for Inactive)
REMARK    1  A    between atoms: C_1  and  O_2
REMARK    2  A    between atoms: O_2  and  C_3
REMARK    3  A    between atoms: C_8  and  O_9
REMARK    4  A    between atoms: O_9  and  C_10
REMARK    5  A    between atoms: C_12  and  C_13
REMARK    6  A    between atoms: C_13  and  C_14
REMARK    7  A    between atoms: C_14  and  C_16
REMARK    8  A    between atoms: C_16  and  C_17
REMARK                            x       y       z     vdW  Elec       q    Type
REMARK                         _______ _______ _______ _____ _____    ______ ____
ROOT
ATOM      1  C   UNL     1      -4.630 -24.026  48.833  0.00  0.00    +0.162 A 
ATOM      2  C   UNL     1      -3.362 -24.443  48.408  0.00  0.00    +0.053 A 
ATOM      3  C   UNL     1      -2.462 -23.489  47.958  0.00  0.00    -0.040 A 
ATOM      4  C   UNL     1      -2.807 -22.138  47.912  0.00  0.00    -0.040 A 
ATOM      5  C   UNL     1      -4.061 -21.704  48.315  0.00  0.00    +0.053 A 
ATOM      6  C   UNL     1      -4.981 -22.650  48.786  0.00  0.00    +0.162 A 
ATOM      7  C   UNL     1      -1.688 -21.313  47.350  0.00  0.00    +0.039 C 
ATOM      8  C   UNL     1      -0.497 -22.282  47.516  0.00  0.00    +0.005 C 
ATOM      9  C   UNL     1      -1.076 -23.712  47.432  0.00  0.00    +0.039 C 
ENDROOT
BRANCH   1  11
ATOM     10  C   UNL     1      -5.346 -25.545  50.532  0.00  0.00    +0.277 C 
ATOM     11  O   UNL     1      -5.602 -24.874  49.308  0.00  0.00    -0.491 OA
ENDBRANCH   1  11
BRANCH   6  12
ATOM     12  O   UNL     1      -6.248 -22.342  49.221  0.00  0.00    -0.491 OA
ATOM     13  C   UNL     1      -6.569 -20.969  49.388  0.00  0.00    +0.277 C 
ENDBRANCH   6  12
BRANCH   8  14
ATOM     14  C   UNL     1       0.697 -22.009  46.602  0.00  0.00    +0.078 C 
BRANCH  14  15
ATOM     15  C   UNL     1       0.424 -21.236  45.315  0.00  0.00    +0.138 C 
ATOM     16  O   UNL     1       0.181 -20.032  45.315  0.00  0.00    -0.297 OA
BRANCH  15  17
ATOM     17  C   UNL     1       0.474 -22.075  44.045  0.00  0.00    +0.109 C 
BRANCH  17  18
ATOM     18  C   UNL     1      -0.683 -23.028  43.870  0.00  0.00    -0.040 A 
ATOM     19  C   UNL     1      -2.002 -22.579  44.019  0.00  0.00    +0.004 A 
ATOM     20  C   UNL     1      -3.071 -23.461  43.852  0.00  0.00    +0.000 A 
ATOM     21  C   UNL     1      -2.834 -24.795  43.531  0.00  0.00    +0.000 A 
ATOM     22  C   UNL     1      -1.526 -25.250  43.371  0.00  0.00    +0.000 A 
ATOM     23  C   UNL     1      -0.454 -24.370  43.537  0.00  0.00    +0.004 A 
ENDBRANCH  17  18
ENDBRANCH  15  17
ENDBRANCH  14  15
ENDBRANCH   8  14
TORSDOF 6
ENDMDL
MODEL 6
REMARK VINA RESULT:    -4.065      2.241      4.077
REMARK INTER + INTRA:          -7.483
REMARK INTER:                  -6.145
REMARK INTRA:                  -1.338
REMARK UNBOUND:                -1.992
REMARK  Name = 
REMARK  8 active torsions:
REMARK  status: ('A' for Active; 'I' for Inactive)
REMARK    1  A    between atoms: C_1  and  O_2
REMARK    2  A    between atoms: O_2  and  C_3
REMARK    3  A    between atoms: C_8  and  O_9
REMARK    4  A    between atoms: O_9  and  C_10
REMARK    5  A    between atoms: C_12  and  C_13
REMARK    6  A    between atoms: C_13  and  C_14
REMARK    7  A    between atoms: C_14  and  C_16
REMARK    8  A    between atoms: C_16  and  C_17
REMARK                            x       y       z     vdW  Elec       q    Type
REMARK                         _______ _______ _______ _____ _____    ______ ____
ROOT
ATOM      1  C   UNL     1       1.486 -21.280  45.390  0.00  0.00    +0.162 A 
ATOM      2  C   UNL     1       0.332 -21.874  45.918  0.00  0.00    +0.053 A 
ATOM      3  C   UNL     1      -0.304 -22.864  45.186  0.00  0.00    -0.040 A 
ATOM      4  C   UNL     1       0.180 -23.260  43.938  0.00  0.00    -0.040 A 
ATOM      5  C   UNL     1       1.312 -22.678  43.391  0.00  0.00    +0.053 A 
ATOM      6  C   UNL     1       1.978 -21.684  44.120  0.00  0.00    +0.162 A 
ATOM      7  C   UNL     1      -0.699 -24.310  43.326  0.00  0.00    +0.039 C 
ATOM      8  C   UNL     1      -1.477 -24.802  44.567  0.00  0.00    +0.005 C 
ATOM      9  C   UNL     1      -1.557 -23.605  45.540  0.00  0.00    +0.039 C 
ENDROOT
BRANCH   1  11
ATOM     10  C   UNL     1       2.742 -20.599  47.305  0.00  0.00    +0.277 C 
ATOM     11  O   UNL     1       2.208 -20.297  46.025  0.00  0.00    -0.491 OA
ENDBRANCH   1  11
BRANCH   6  12
ATOM     12  O   UNL     1       3.114 -21.041  43.688  0.00  0.00    -0.491 OA
ATOM     13  C   UNL     1       3.846 -21.641  42.630  0.00  0.00    +0.277 C 
ENDBRANCH   6  12
BRANCH   8  14
ATOM     14  C   UNL     1      -2.808 -25.490  44.270  0.00  0.00    +0.078 C 
BRANCH  14  15
ATOM     15  C   UNL     1      -3.654 -24.910  43.142  0.00  0.00    +0.138 C 
ATOM     16  O   UNL     1      -3.511 -25.258  41.972  0.00  0.00    -0.297 OA
BRANCH  15  17
ATOM     17  C   UNL     1      -4.677 -23.870  43.581  0.00  0.00    +0.109 C 
BRANCH  17  18
ATOM     18  C   UNL     1      -4.489 -22.503  42.973  0.00  0.00    -0.040 A 
ATOM     19  C   UNL     1      -3.550 -21.610  43.507  0.00  0.00    +0.004 A 
ATOM     20  C   UNL     1      -3.373 -20.346  42.940  0.00  0.00    +0.000 A 
ATOM     21  C   UNL     1      -4.128 -19.966  41.833  0.00  0.00    +0.000 A 
ATOM     22  C   UNL     1      -5.057 -20.849  41.287  0.00  0.00    +0.000 A 
ATOM     23  C   UNL     1      -5.235 -22.114  41.852  0.00  0.00    +0.004 A 
ENDBRANCH  17  18
ENDBRANCH  15  17
ENDBRANCH  14  15
ENDBRANCH   8  14
TORSDOF 6
ENDMDL
MODEL 7
REMARK VINA RESULT:    -4.006      1.929      5.733
REMARK INTER + INTRA:          -7.403
REMARK INTER:                  -5.580
REMARK INTRA:                  -1.823
REMARK UNBOUND:                -1.992
REMARK  Name = 
REMARK  8 active torsions:
REMARK  status: ('A' for Active; 'I' for Inactive)
REMARK    1  A    between atoms: C_1  and  O_2
REMARK    2  A    between atoms: O_2  and  C_3
REMARK    3  A    between atoms: C_8  and  O_9
REMARK    4  A    between atoms: O_9  and  C_10
REMARK    5  A    between atoms: C_12  and  C_13
REMARK    6  A    between atoms: C_13  and  C_14
REMARK    7  A    between atoms: C_14  and  C_16
REMARK    8  A    between atoms: C_16  and  C_17
REMARK                            x       y       z     vdW  Elec       q    Type
REMARK                         _______ _______ _______ _____ _____    ______ ____
ROOT
ATOM      1  C   UNL     1      -2.475 -22.688  44.077  0.00  0.00    +0.162 A 
ATOM      2  C   UNL     1      -1.813 -21.462  44.221  0.00  0.00    +0.053 A 
ATOM      3  C   UNL     1      -0.436 -21.426  44.063  0.00  0.00    -0.040 A 
ATOM      4  C   UNL     1       0.287 -22.584  43.779  0.00  0.00    -0.040 A 
ATOM      5  C   UNL     1      -0.345 -23.810  43.646  0.00  0.00    +0.053 A 
ATOM      6  C   UNL     1      -1.738 -23.868  43.789  0.00  0.00    +0.162 A 
ATOM      7  C   UNL     1       1.757 -22.297  43.698  0.00  0.00    +0.039 C 
ATOM      8  C   UNL     1       1.747 -20.765  43.506  0.00  0.00    +0.005 C 
ATOM      9  C   UNL     1       0.472 -20.241  44.202  0.00  0.00    +0.039 C 
ENDROOT
BRANCH   1  11
ATOM     10  C   UNL     1      -4.643 -22.473  43.096  0.00  0.00    +0.277 C 
ATOM     11  O   UNL     1      -3.835 -22.850  44.201  0.00  0.00    -0.491 OA
ENDBRANCH   1  11
BRANCH   6  12
ATOM     12  O   UNL     1      -2.478 -25.021  43.669  0.00  0.00    -0.491 OA
ATOM     13  C   UNL     1      -2.440 -25.699  42.423  0.00  0.00    +0.277 C 
ENDBRANCH   6  12
BRANCH   8  14
ATOM     14  C   UNL     1       3.041 -20.051  43.894  0.00  0.00    +0.078 C 
BRANCH  14  15
ATOM     15  C   UNL     1       3.032 -19.254  45.195  0.00  0.00    +0.138 C 
ATOM     16  O   UNL     1       2.862 -18.037  45.213  0.00  0.00    -0.297 OA
BRANCH  15  17
ATOM     17  C   UNL     1       3.253 -20.082  46.453  0.00  0.00    +0.109 C 
BRANCH  17  18
ATOM     18  C   UNL     1       1.992 -20.478  47.180  0.00  0.00    -0.040 A 
ATOM     19  C   UNL     1       1.635 -21.828  47.300  0.00  0.00    +0.004 A 
ATOM     20  C   UNL     1       0.471 -22.193  47.977  0.00  0.00    +0.000 A 
ATOM     21  C   UNL     1      -0.344 -21.216  48.544  0.00  0.00    +0.000 A 
ATOM     22  C   UNL     1       0.007 -19.871  48.440  0.00  0.00    +0.000 A 
ATOM     23  C   UNL     1       1.171 -19.503  47.763  0.00  0.00    +0.004 A 
ENDBRANCH  17  18
ENDBRANCH  15  17
ENDBRANCH  14  15
ENDBRANCH   8  14
TORSDOF 6
ENDMDL
MODEL 8
REMARK VINA RESULT:    -3.974      3.106      5.524
REMARK INTER + INTRA:          -7.359
REMARK INTER:                  -5.341
REMARK INTRA:                  -2.019
REMARK UNBOUND:                -1.992
REMARK  Name = 
REMARK  8 active torsions:
REMARK  status: ('A' for Active; 'I' for Inactive)
REMARK    1  A    between atoms: C_1  and  O_2
REMARK    2  A    between atoms: O_2  and  C_3
REMARK    3  A    between atoms: C_8  and  O_9
REMARK    4  A    between atoms: O_9  and  C_10
REMARK    5  A    between atoms: C_12  and  C_13
REMARK    6  A    between atoms: C_13  and  C_14
REMARK    7  A    between atoms: C_14  and  C_16
REMARK    8  A    between atoms: C_16  and  C_17
REMARK                            x       y       z     vdW  Elec       q    Type
REMARK                         _______ _______ _______ _____ _____    ______ ____
ROOT
ATOM      1  C   UNL     1      -1.232 -23.253  45.979  0.00  0.00    +0.162 A 
ATOM      2  C   UNL     1      -1.862 -23.019  47.208  0.00  0.00    +0.053 A 
ATOM      3  C   UNL     1      -2.875 -23.875  47.613  0.00  0.00    -0.040 A 
ATOM      4  C   UNL     1      -3.276 -24.945  46.813  0.00  0.00    -0.040 A 
ATOM      5  C   UNL     1      -2.676 -25.188  45.587  0.00  0.00    +0.053 A 
ATOM      6  C   UNL     1      -1.641 -24.343  45.165  0.00  0.00    +0.162 A 
ATOM      7  C   UNL     1      -4.412 -25.695  47.443  0.00  0.00    +0.039 C 
ATOM      8  C   UNL     1      -4.304 -25.214  48.907  0.00  0.00    +0.005 C 
ATOM      9  C   UNL     1      -3.699 -23.794  48.862  0.00  0.00    +0.039 C 
ENDROOT
BRANCH   1  11
ATOM     10  C   UNL     1      -0.301 -21.077  45.657  0.00  0.00    +0.277 C 
ATOM     11  O   UNL     1      -0.212 -22.482  45.476  0.00  0.00    -0.491 OA
ENDBRANCH   1  11
BRANCH   6  12
ATOM     12  O   UNL     1      -0.964 -24.488  43.977  0.00  0.00    -0.491 OA
ATOM     13  C   UNL     1      -1.147 -25.700  43.261  0.00  0.00    +0.277 C 
ENDBRANCH   6  12
BRANCH   8  14
ATOM     14  C   UNL     1      -5.583 -25.352  49.732  0.00  0.00    +0.078 C 
BRANCH  14  15
ATOM     15  C   UNL     1      -6.401 -24.086  49.962  0.00  0.00    +0.138 C 
ATOM     16  O   UNL     1      -6.143 -23.298  50.869  0.00  0.00    -0.297 OA
BRANCH  15  17
ATOM     17  C   UNL     1      -7.555 -23.886  48.989  0.00  0.00    +0.109 C 
BRANCH  17  18
ATOM     18  C   UNL     1      -7.143 -23.487  47.594  0.00  0.00    -0.040 A 
ATOM     19  C   UNL     1      -6.364 -22.341  47.383  0.00  0.00    +0.004 A 
ATOM     20  C   UNL     1      -5.980 -21.976  46.091  0.00  0.00    +0.000 A 
ATOM     21  C   UNL     1      -6.363 -22.754  45.001  0.00  0.00    +0.000 A 
ATOM     22  C   UNL     1      -7.129 -23.901  45.200  0.00  0.00    +0.000 A 
ATOM     23  C   UNL     1      -7.515 -24.269  46.491  0.00  0.00    +0.004 A 
ENDBRANCH  17  18
ENDBRANCH  15  17
ENDBRANCH  14  15
ENDBRANCH   8  14
TORSDOF 6
ENDMDL
MODEL 9
REMARK VINA RESULT:    -3.959      4.593      7.391
REMARK INTER + INTRA:          -7.340
REMARK INTER:                  -5.850
REMARK INTRA:                  -1.489
REMARK UNBOUND:                -1.992
REMARK  Name = 
REMARK  8 active torsions:
REMARK  status: ('A' for Active; 'I' for Inactive)
REMARK    1  A    between atoms: C_1  and  O_2
REMARK    2  A    between atoms: O_2  and  C_3
REMARK    3  A    between atoms: C_8  and  O_9
REMARK    4  A    between atoms: O_9  and  C_10
REMARK    5  A    between atoms: C_12  and  C_13
REMARK    6  A    between atoms: C_13  and  C_14
REMARK    7  A    between atoms: C_14  and  C_16
REMARK    8  A    between atoms: C_16  and  C_17
REMARK                            x       y       z     vdW  Elec       q    Type
REMARK                         _______ _______ _______ _____ _____    ______ ____
ROOT
ATOM      1  C   UNL     1      -2.953 -24.684  47.557  0.00  0.00    +0.162 A 
ATOM      2  C   UNL     1      -3.008 -24.925  48.936  0.00  0.00    +0.053 A 
ATOM      3  C   UNL     1      -4.247 -24.964  49.557  0.00  0.00    -0.040 A 
ATOM      4  C   UNL     1      -5.422 -24.756  48.834  0.00  0.00    -0.040 A 
ATOM      5  C   UNL     1      -5.390 -24.504  47.472  0.00  0.00    +0.053 A 
ATOM      6  C   UNL     1      -4.149 -24.473  46.822  0.00  0.00    +0.162 A 
ATOM      7  C   UNL     1      -6.623 -24.804  49.731  0.00  0.00    +0.039 C 
ATOM      8  C   UNL     1      -6.039 -25.525  50.966  0.00  0.00    +0.005 C 
ATOM      9  C   UNL     1      -4.536 -25.173  51.013  0.00  0.00    +0.039 C 
ENDROOT
BRANCH   1  11
ATOM     10  C   UNL     1      -0.977 -23.474  46.972  0.00  0.00    +0.277 C 
ATOM     11  O   UNL     1      -1.787 -24.631  46.829  0.00  0.00    -0.491 OA
ENDBRANCH   1  11
BRANCH   6  12
ATOM     12  O   UNL     1      -3.991 -24.242  45.475  0.00  0.00    -0.491 OA
ATOM     13  C   UNL     1      -5.038 -23.566  44.797  0.00  0.00    +0.277 C 
ENDBRANCH   6  12
BRANCH   8  14
ATOM     14  C   UNL     1      -6.802 -25.300  52.271  0.00  0.00    +0.078 C 
BRANCH  14  15
ATOM     15  C   UNL     1      -7.385 -23.910  52.506  0.00  0.00    +0.138 C 
ATOM     16  O   UNL     1      -8.573 -23.661  52.318  0.00  0.00    -0.297 OA
BRANCH  15  17
ATOM     17  C   UNL     1      -6.380 -22.870  52.982  0.00  0.00    +0.109 C 
BRANCH  17  18
ATOM     18  C   UNL     1      -6.284 -21.640  52.113  0.00  0.00    -0.040 A 
ATOM     19  C   UNL     1      -5.539 -21.665  50.926  0.00  0.00    +0.004 A 
ATOM     20  C   UNL     1      -5.455 -20.527  50.121  0.00  0.00    +0.000 A 
ATOM     21  C   UNL     1      -6.118 -19.359  50.490  0.00  0.00    +0.000 A 
ATOM     22  C   UNL     1      -6.870 -19.326  51.663  0.00  0.00    +0.000 A 
ATOM     23  C   UNL     1      -6.955 -20.462  52.471  0.00  0.00    +0.004 A 
ENDBRANCH  17  18
ENDBRANCH  15  17
ENDBRANCH  14  15
ENDBRANCH   8  14
TORSDOF 6
ENDMDL
