MODEL 1
REMARK VINA RESULT:    -4.429      0.000      0.000
REMARK INTER + INTRA:          -5.563
REMARK INTER:                  -5.206
REMARK INTRA:                  -0.357
REMARK UNBOUND:                -0.357
REMARK  Name = 
REMARK  5 active torsions:
REMARK  status: ('A' for Active; 'I' for Inactive)
REMARK    1  A    between atoms: C_1  and  C_2
REMARK    2  A    between atoms: C_5  and  O_6
REMARK    3  A    between atoms: O_6  and  C_7
REMARK    4  A    between atoms: C_8  and  C_9
REMARK    5  A    between atoms: C_9  and  N_10
REMARK                            x       y       z     vdW  Elec       q    Type
REMARK                         _______ _______ _______ _____ _____    ______ ____
ROOT
ATOM      1  C   UNL     1      -3.637 -25.687  40.379  0.00  0.00    +0.044 C 
ATOM      2  C   UNL     1      -3.327 -25.229  41.774  0.00  0.00    -0.050 A 
ATOM      3  C   UNL     1      -2.194 -25.700  42.440  0.00  0.00    +0.007 A 
ATOM      4  C   UNL     1      -1.922 -25.296  43.751  0.00  0.00    +0.046 A 
ATOM      5  C   UNL     1      -2.788 -24.429  44.424  0.00  0.00    +0.124 A 
ATOM      6  C   UNL     1      -3.939 -23.954  43.769  0.00  0.00    +0.008 A 
ATOM      7  C   UNL     1      -4.198 -24.367  42.448  0.00  0.00    +0.012 A 
ENDROOT
BRANCH   5   8
ATOM      8  O   UNL     1      -2.579 -23.967  45.698  0.00  0.00    -0.495 OA
ATOM      9  C   UNL     1      -1.387 -23.229  45.930  0.00  0.00    +0.277 C 
ENDBRANCH   5   8
BRANCH   6  10
ATOM     10  C   UNL     1      -4.919 -23.025  44.461  0.00  0.00    +0.123 C 
BRANCH  10  11
ATOM     11  N   UNL     1      -6.145 -23.695  44.926  0.00  0.00    -0.296 NA
ATOM     12  C   UNL     1      -7.345 -23.271  44.178  0.00  0.00    +0.100 C 
ATOM     13  C   UNL     1      -8.678 -23.667  44.866  0.00  0.00    +0.096 C 
ATOM     14  N   UNL     1      -8.511 -24.730  45.871  0.00  0.00    -0.314 NA
ATOM     15  C   UNL     1      -7.580 -24.247  46.912  0.00  0.00    +0.096 C 
ATOM     16  C   UNL     1      -6.347 -23.480  46.369  0.00  0.00    +0.100 C 
ATOM     17  H   UNL     1      -8.012 -25.484  45.388  0.00  0.00    +0.122 HD
ENDBRANCH  10  11
ENDBRANCH   6  10
TORSDOF 3
ENDMDL
MODEL 2
REMARK VINA RESULT:    -4.143      4.420      6.959
REMARK INTER + INTRA:          -5.227
REMARK INTER:                  -4.856
REMARK INTRA:                  -0.371
REMARK UNBOUND:                -0.357
REMARK  Name = 
REMARK  5 active torsions:
REMARK  status: ('A' for Active; 'I' for Inactive)
REMARK    1  A    between atoms: C_1  and  C_2
REMARK    2  A    between atoms: C_5  and  O_6
REMARK    3  A    between atoms: O_6  and  C_7
REMARK    4  A    between atoms: C_8  and  C_9
REMARK    5  A    between atoms: C_9  and  N_10
REMARK                            x       y       z     vdW  Elec       q    Type
REMARK                         _______ _______ _______ _____ _____    ______ ____
ROOT
ATOM      1  C   UNL     1      -1.521 -25.699  42.196  0.00  0.00    +0.044 C 
ATOM      2  C   UNL     1      -1.602 -24.928  43.480  0.00  0.00    -0.050 A 
ATOM      3  C   UNL     1      -2.450 -25.349  44.508  0.00  0.00    +0.007 A 
ATOM      4  C   UNL     1      -2.548 -24.613  45.692  0.00  0.00    +0.046 A 
ATOM      5  C   UNL     1      -1.813 -23.435  45.864  0.00  0.00    +0.124 A 
ATOM      6  C   UNL     1      -0.963 -22.994  44.834  0.00  0.00    +0.008 A 
ATOM      7  C   UNL     1      -0.872 -23.747  43.647  0.00  0.00    +0.012 A 
ENDROOT
BRANCH   5   8
ATOM      8  O   UNL     1      -1.835 -22.673  47.003  0.00  0.00    -0.495 OA
ATOM      9  C   UNL     1      -1.294 -23.256  48.181  0.00  0.00    +0.277 C 
ENDBRANCH   5   8
BRANCH   6  10
ATOM     10  C   UNL     1      -0.158 -21.714  44.963  0.00  0.00    +0.123 C 
BRANCH  10  11
ATOM     11  N   UNL     1       1.298 -21.929  44.993  0.00  0.00    -0.296 NA
ATOM     12  C   UNL     1       1.909 -21.517  46.273  0.00  0.00    +0.100 C 
ATOM     13  C   UNL     1       3.453 -21.385  46.211  0.00  0.00    +0.096 C 
ATOM     14  N   UNL     1       4.043 -22.091  45.061  0.00  0.00    -0.314 NA
ATOM     15  C   UNL     1       3.481 -21.516  43.821  0.00  0.00    +0.096 C 
ATOM     16  C   UNL     1       1.957 -21.236  43.873  0.00  0.00    +0.100 C 
ATOM     17  H   UNL     1       3.673 -23.045  45.109  0.00  0.00    +0.122 HD
ENDBRANCH  10  11
ENDBRANCH   6  10
TORSDOF 3
ENDMDL
MODEL 3
REMARK VINA RESULT:    -4.074      4.458      6.849
REMARK INTER + INTRA:          -5.145
REMARK INTER:                  -4.778
REMARK INTRA:                  -0.367
REMARK UNBOUND:                -0.357
REMARK  Name = 
REMARK  5 active torsions:
REMARK  status: ('A' for Active; 'I' for Inactive)
REMARK    1  A    between atoms: C_1  and  C_2
REMARK    2  A    between atoms: C_5  and  O_6
REMARK    3  A    between atoms: O_6  and  C_7
REMARK    4  A    between atoms: C_8  and  C_9
REMARK    5  A    between atoms: C_9  and  N_10
REMARK                            x       y       z     vdW  Elec       q    Type
REMARK                         _______ _______ _______ _____ _____    ______ ____
ROOT
ATOM      1  C   UNL     1      -0.695 -25.698  42.611  0.00  0.00    +0.044 C 
ATOM      2  C   UNL     1      -1.119 -24.468  43.358  0.00  0.00    -0.050 A 
ATOM      3  C   UNL     1      -2.461 -24.267  43.689  0.00  0.00    +0.007 A 
ATOM      4  C   UNL     1      -2.861 -23.106  44.358  0.00  0.00    +0.046 A 
ATOM      5  C   UNL     1      -1.928 -22.119  44.693  0.00  0.00    +0.124 A 
ATOM      6  C   UNL     1      -0.575 -22.303  44.357  0.00  0.00    +0.008 A 
ATOM      7  C   UNL     1      -0.187 -23.478  43.686  0.00  0.00    +0.012 A 
ENDROOT
BRANCH   5   8
ATOM      8  O   UNL     1      -2.236 -20.967  45.370  0.00  0.00    -0.495 OA
ATOM      9  C   UNL     1      -2.794 -21.111  46.669  0.00  0.00    +0.277 C 
ENDBRANCH   5   8
BRANCH   6  10
ATOM     10  C   UNL     1       0.473 -21.255  44.682  0.00  0.00    +0.123 C 
BRANCH  10  11
ATOM     11  N   UNL     1       1.430 -21.674  45.719  0.00  0.00    -0.296 NA
ATOM     12  C   UNL     1       0.799 -21.839  47.044  0.00  0.00    +0.100 C 
ATOM     13  C   UNL     1       1.816 -21.918  48.212  0.00  0.00    +0.096 C 
ATOM     14  N   UNL     1       3.181 -22.242  47.763  0.00  0.00    -0.314 NA
ATOM     15  C   UNL     1       3.629 -21.187  46.831  0.00  0.00    +0.096 C 
ATOM     16  C   UNL     1       2.556 -20.728  45.811  0.00  0.00    +0.100 C 
ATOM     17  H   UNL     1       3.085 -23.087  47.191  0.00  0.00    +0.122 HD
ENDBRANCH  10  11
ENDBRANCH   6  10
TORSDOF 3
ENDMDL
MODEL 4
REMARK VINA RESULT:    -4.023      4.758      7.382
REMARK INTER + INTRA:          -5.086
REMARK INTER:                  -4.712
REMARK INTRA:                  -0.374
REMARK UNBOUND:                -0.357
REMARK  Name = 
REMARK  5 active torsions:
REMARK  status: ('A' for Active; 'I' for Inactive)
REMARK    1  A    between atoms: C_1  and  C_2
REMARK    2  A    between atoms: C_5  and  O_6
REMARK    3  A    between atoms: O_6  and  C_7
REMARK    4  A    between atoms: C_8  and  C_9
REMARK    5  A    between atoms: C_9  and  N_10
REMARK                            x       y       z     vdW  Elec       q    Type
REMARK                         _______ _______ _______ _____ _____    ______ ____
ROOT
ATOM      1  C   UNL     1      -2.435 -23.651  48.232  0.00  0.00    +0.044 C 
ATOM      2  C   UNL     1      -1.929 -23.995  46.862  0.00  0.00    -0.050 A 
ATOM      3  C   UNL     1      -1.957 -25.315  46.406  0.00  0.00    +0.007 A 
ATOM      4  C   UNL     1      -1.456 -25.640  45.141  0.00  0.00    +0.046 A 
ATOM      5  C   UNL     1      -0.904 -24.653  44.318  0.00  0.00    +0.124 A 
ATOM      6  C   UNL     1      -0.861 -23.321  44.767  0.00  0.00    +0.008 A 
ATOM      7  C   UNL     1      -1.371 -23.008  46.042  0.00  0.00    +0.012 A 
ENDROOT
BRANCH   5   8
ATOM      8  O   UNL     1      -0.417 -24.886  43.058  0.00  0.00    -0.495 OA
ATOM      9  C   UNL     1      -1.207 -25.700  42.201  0.00  0.00    +0.277 C 
ENDBRANCH   5   8
BRANCH   6  10
ATOM     10  C   UNL     1      -0.257 -22.217  43.920  0.00  0.00    +0.123 C 
BRANCH  10  11
ATOM     11  N   UNL     1       1.089 -21.806  44.351  0.00  0.00    -0.296 NA
ATOM     12  C   UNL     1       1.211 -20.345  44.525  0.00  0.00    +0.100 C 
ATOM     13  C   UNL     1       2.679 -19.850  44.618  0.00  0.00    +0.096 C 
ATOM     14  N   UNL     1       3.627 -20.928  44.944  0.00  0.00    -0.314 NA
ATOM     15  C   UNL     1       3.553 -21.954  43.883  0.00  0.00    +0.096 C 
ATOM     16  C   UNL     1       2.115 -22.290  43.411  0.00  0.00    +0.100 C 
ATOM     17  H   UNL     1       3.249 -21.378  45.784  0.00  0.00    +0.122 HD
ENDBRANCH  10  11
ENDBRANCH   6  10
TORSDOF 3
ENDMDL
MODEL 5
REMARK VINA RESULT:    -3.933      2.749      3.556
REMARK INTER + INTRA:          -4.980
REMARK INTER:                  -4.561
REMARK INTRA:                  -0.419
REMARK UNBOUND:                -0.357
REMARK  Name = 
REMARK  5 active torsions:
REMARK  status: ('A' for Active; 'I' for Inactive)
REMARK    1  A    between atoms: C_1  and  C_2
REMARK    2  A    between atoms: C_5  and  O_6
REMARK    3  A    between atoms: O_6  and  C_7
REMARK    4  A    between atoms: C_8  and  C_9
REMARK    5  A    between atoms: C_9  and  N_10
REMARK                            x       y       z     vdW  Elec       q    Type
REMARK                         _______ _______ _______ _____ _____    ______ ____
ROOT
ATOM      1  C   UNL     1      -0.777 -25.695  42.573  0.00  0.00    +0.044 C 
ATOM      2  C   UNL     1      -0.799 -24.693  43.690  0.00  0.00    -0.050 A 
ATOM      3  C   UNL     1      -0.136 -23.470  43.559  0.00  0.00    +0.007 A 
ATOM      4  C   UNL     1      -0.131 -22.550  44.612  0.00  0.00    +0.046 A 
ATOM      5  C   UNL     1      -0.773 -22.843  45.819  0.00  0.00    +0.124 A 
ATOM      6  C   UNL     1      -1.437 -24.074  45.968  0.00  0.00    +0.008 A 
ATOM      7  C   UNL     1      -1.436 -24.990  44.899  0.00  0.00    +0.012 A 
ENDROOT
BRANCH   5   8
ATOM      8  O   UNL     1      -0.835 -21.985  46.886  0.00  0.00    -0.495 OA
ATOM      9  C   UNL     1      -1.537 -20.764  46.694  0.00  0.00    +0.277 C 
ENDBRANCH   5   8
BRANCH   6  10
ATOM     10  C   UNL     1      -2.134 -24.448  47.264  0.00  0.00    +0.123 C 
BRANCH  10  11
ATOM     11  N   UNL     1      -3.547 -24.038  47.316  0.00  0.00    -0.296 NA
ATOM     12  C   UNL     1      -3.852 -23.192  48.488  0.00  0.00    +0.100 C 
ATOM     13  C   UNL     1      -5.370 -23.049  48.773  0.00  0.00    +0.096 C 
ATOM     14  N   UNL     1      -6.207 -23.406  47.615  0.00  0.00    -0.314 NA
ATOM     15  C   UNL     1      -5.935 -24.814  47.258  0.00  0.00    +0.096 C 
ATOM     16  C   UNL     1      -4.437 -25.211  47.295  0.00  0.00    +0.100 C 
ATOM     17  H   UNL     1      -5.841 -22.852  46.835  0.00  0.00    +0.122 HD
ENDBRANCH  10  11
ENDBRANCH   6  10
TORSDOF 3
ENDMDL
MODEL 6
REMARK VINA RESULT:    -3.896     11.237     13.644
REMARK INTER + INTRA:          -4.936
REMARK INTER:                  -4.614
REMARK INTRA:                  -0.322
REMARK UNBOUND:                -0.357
REMARK  Name = 
REMARK  5 active torsions:
REMARK  status: ('A' for Active; 'I' for Inactive)
REMARK    1  A    between atoms: C_1  and  C_2
REMARK    2  A    between atoms: C_5  and  O_6
REMARK    3  A    between atoms: O_6  and  C_7
REMARK    4  A    between atoms: C_8  and  C_9
REMARK    5  A    between atoms: C_9  and  N_10
REMARK                            x       y       z     vdW  Elec       q    Type
REMARK                         _______ _______ _______ _____ _____    ______ ____
ROOT
ATOM      1  C   UNL     1       1.425 -20.385  51.294  0.00  0.00    +0.044 C 
ATOM      2  C   UNL     1       1.571 -20.940  52.680  0.00  0.00    -0.050 A 
ATOM      3  C   UNL     1       0.965 -20.305  53.766  0.00  0.00    +0.007 A 
ATOM      4  C   UNL     1       1.126 -20.804  55.062  0.00  0.00    +0.046 A 
ATOM      5  C   UNL     1       1.911 -21.938  55.296  0.00  0.00    +0.124 A 
ATOM      6  C   UNL     1       2.536 -22.583  54.213  0.00  0.00    +0.008 A 
ATOM      7  C   UNL     1       2.361 -22.070  52.914  0.00  0.00    +0.012 A 
ENDROOT
BRANCH   5   8
ATOM      8  O   UNL     1       2.098 -22.504  56.531  0.00  0.00    -0.495 OA
ATOM      9  C   UNL     1       1.108 -22.242  57.517  0.00  0.00    +0.277 C 
ENDBRANCH   5   8
BRANCH   6  10
ATOM     10  C   UNL     1       3.411 -23.806  54.416  0.00  0.00    +0.123 C 
BRANCH  10  11
ATOM     11  N   UNL     1       4.517 -23.911  53.450  0.00  0.00    -0.296 NA
ATOM     12  C   UNL     1       4.732 -25.293  52.977  0.00  0.00    +0.100 C 
ATOM     13  C   UNL     1       6.092 -25.501  52.259  0.00  0.00    +0.096 C 
ATOM     14  N   UNL     1       6.701 -24.237  51.811  0.00  0.00    -0.314 NA
ATOM     15  C   UNL     1       6.930 -23.382  52.994  0.00  0.00    +0.096 C 
ATOM     16  C   UNL     1       5.765 -23.372  54.017  0.00  0.00    +0.100 C 
ATOM     17  H   UNL     1       5.973 -23.762  51.269  0.00  0.00    +0.122 HD
ENDBRANCH  10  11
ENDBRANCH   6  10
TORSDOF 3
ENDMDL
MODEL 7
REMARK VINA RESULT:    -3.886      5.911      8.332
REMARK INTER + INTRA:          -4.925
REMARK INTER:                  -4.512
REMARK INTRA:                  -0.413
REMARK UNBOUND:                -0.357
REMARK  Name = 
REMARK  5 active torsions:
REMARK  status: ('A' for Active; 'I' for Inactive)
REMARK    1  A    between atoms: C_1  and  C_2
REMARK    2  A    between atoms: C_5  and  O_6
REMARK    3  A    between atoms: O_6  and  C_7
REMARK    4  A    between atoms: C_8  and  C_9
REMARK    5  A    between atoms: C_9  and  N_10
REMARK                            x       y       z     vdW  Elec       q    Type
REMARK                         _______ _______ _______ _____ _____    ______ ____
ROOT
ATOM      1  C   UNL     1       3.807 -21.935  42.896  0.00  0.00    +0.044 C 
ATOM      2  C   UNL     1       2.590 -22.025  43.769  0.00  0.00    -0.050 A 
ATOM      3  C   UNL     1       1.426 -22.639  43.302  0.00  0.00    +0.007 A 
ATOM      4  C   UNL     1       0.282 -22.696  44.104  0.00  0.00    +0.046 A 
ATOM      5  C   UNL     1       0.278 -22.124  45.381  0.00  0.00    +0.124 A 
ATOM      6  C   UNL     1       1.440 -21.493  45.860  0.00  0.00    +0.008 A 
ATOM      7  C   UNL     1       2.585 -21.446  45.042  0.00  0.00    +0.012 A 
ENDROOT
BRANCH   5   8
ATOM      8  O   UNL     1      -0.793 -22.160  46.237  0.00  0.00    -0.495 OA
ATOM      9  C   UNL     1      -1.226 -23.440  46.675  0.00  0.00    +0.277 C 
ENDBRANCH   5   8
BRANCH   6  10
ATOM     10  C   UNL     1       1.481 -20.842  47.231  0.00  0.00    +0.123 C 
BRANCH  10  11
ATOM     11  N   UNL     1       2.328 -21.554  48.201  0.00  0.00    -0.296 NA
ATOM     12  C   UNL     1       1.562 -22.489  49.049  0.00  0.00    +0.100 C 
ATOM     13  C   UNL     1       2.339 -22.973  50.301  0.00  0.00    +0.096 C 
ATOM     14  N   UNL     1       3.793 -22.766  50.188  0.00  0.00    -0.314 NA
ATOM     15  C   UNL     1       4.048 -21.321  50.016  0.00  0.00    +0.096 C 
ATOM     16  C   UNL     1       3.076 -20.605  49.043  0.00  0.00    +0.100 C 
ATOM     17  H   UNL     1       4.060 -23.197  49.297  0.00  0.00    +0.122 HD
ENDBRANCH  10  11
ENDBRANCH   6  10
TORSDOF 3
ENDMDL
MODEL 8
REMARK VINA RESULT:    -3.870      3.637      5.863
REMARK INTER + INTRA:          -4.906
REMARK INTER:                  -4.562
REMARK INTRA:                  -0.344
REMARK UNBOUND:                -0.357
REMARK  Name = 
REMARK  5 active torsions:
REMARK  status: ('A' for Active; 'I' for Inactive)
REMARK    1  A    between atoms: C_1  and  C_2
REMARK    2  A    between atoms: C_5  and  O_6
REMARK    3  A    between atoms: O_6  and  C_7
REMARK    4  A    between atoms: C_8  and  C_9
REMARK    5  A    between atoms: C_9  and  N_10
REMARK                            x       y       z     vdW  Elec       q    Type
REMARK                         _______ _______ _______ _____ _____    ______ ____
ROOT
ATOM      1  C   UNL     1       3.414 -21.971  42.710  0.00  0.00    +0.044 C 
ATOM      2  C   UNL     1       2.657 -21.859  44.001  0.00  0.00    -0.050 A 
ATOM      3  C   UNL     1       3.336 -21.666  45.206  0.00  0.00    +0.007 A 
ATOM      4  C   UNL     1       2.633 -21.593  46.413  0.00  0.00    +0.046 A 
ATOM      5  C   UNL     1       1.241 -21.730  46.437  0.00  0.00    +0.124 A 
ATOM      6  C   UNL     1       0.545 -21.935  45.232  0.00  0.00    +0.008 A 
ATOM      7  C   UNL     1       1.266 -22.004  44.024  0.00  0.00    +0.012 A 
ENDROOT
BRANCH   5   8
ATOM      8  O   UNL     1       0.479 -21.645  47.573  0.00  0.00    -0.495 OA
ATOM      9  C   UNL     1       0.919 -22.386  48.703  0.00  0.00    +0.277 C 
ENDBRANCH   5   8
BRANCH   6  10
ATOM     10  C   UNL     1      -0.962 -22.107  45.205  0.00  0.00    +0.123 C 
BRANCH  10  11
ATOM     11  N   UNL     1      -1.419 -23.213  44.347  0.00  0.00    -0.296 NA
ATOM     12  C   UNL     1      -2.778 -22.995  43.812  0.00  0.00    +0.100 C 
ATOM     13  C   UNL     1      -3.424 -24.275  43.218  0.00  0.00    +0.096 C 
ATOM     14  N   UNL     1      -2.439 -25.325  42.911  0.00  0.00    -0.314 NA
ATOM     15  C   UNL     1      -1.746 -25.696  44.162  0.00  0.00    +0.096 C 
ATOM     16  C   UNL     1      -1.359 -24.497  45.066  0.00  0.00    +0.100 C 
ATOM     17  H   UNL     1      -1.727 -24.869  42.332  0.00  0.00    +0.122 HD
ENDBRANCH  10  11
ENDBRANCH   6  10
TORSDOF 3
ENDMDL
MODEL 9
REMARK VINA RESULT:    -3.862      3.931      6.726
REMARK INTER + INTRA:          -4.896
REMARK INTER:                  -4.529
REMARK INTRA:                  -0.368
REMARK UNBOUND:                -0.357
REMARK  Name = 
REMARK  5 active torsions:
REMARK  status: ('A' for Active; 'I' for Inactive)
REMARK    1  A    between atoms: C_1  and  C_2
REMARK    2  A    between atoms: C_5  and  O_6
REMARK    3  A    between atoms: O_6  and  C_7
REMARK    4  A    between atoms: C_8  and  C_9
REMARK    5  A    between atoms: C_9  and  N_10
REMARK                            x       y       z     vdW  Elec       q    Type
REMARK                         _______ _______ _______ _____ _____    ______ ____
ROOT
ATOM      1  C   UNL     1       1.123 -20.916  48.561  0.00  0.00    +0.044 C 
ATOM      2  C   UNL     1       1.533 -21.292  47.168  0.00  0.00    -0.050 A 
ATOM      3  C   UNL     1       2.883 -21.345  46.815  0.00  0.00    +0.007 A 
ATOM      4  C   UNL     1       3.264 -21.665  45.508  0.00  0.00    +0.046 A 
ATOM      5  C   UNL     1       2.300 -21.922  44.528  0.00  0.00    +0.124 A 
ATOM      6  C   UNL     1       0.936 -21.863  44.866  0.00  0.00    +0.008 A 
ATOM      7  C   UNL     1       0.568 -21.542  46.186  0.00  0.00    +0.012 A 
ENDROOT
BRANCH   5   8
ATOM      8  O   UNL     1       2.592 -22.267  43.233  0.00  0.00    -0.495 OA
ATOM      9  C   UNL     1       3.762 -21.698  42.661  0.00  0.00    +0.277 C 
ENDBRANCH   5   8
BRANCH   6  10
ATOM     10  C   UNL     1      -0.149 -22.116  43.835  0.00  0.00    +0.123 C 
BRANCH  10  11
ATOM     11  N   UNL     1      -0.905 -23.358  44.062  0.00  0.00    -0.296 NA
ATOM     12  C   UNL     1      -0.384 -24.494  43.275  0.00  0.00    +0.100 C 
ATOM     13  C   UNL     1      -1.358 -25.700  43.205  0.00  0.00    +0.096 C 
ATOM     14  N   UNL     1      -2.390 -25.665  44.255  0.00  0.00    -0.314 NA
ATOM     15  C   UNL     1      -3.178 -24.425  44.094  0.00  0.00    +0.096 C 
ATOM     16  C   UNL     1      -2.337 -23.162  43.779  0.00  0.00    +0.100 C 
ATOM     17  H   UNL     1      -1.878 -25.549  45.135  0.00  0.00    +0.122 HD
ENDBRANCH  10  11
ENDBRANCH   6  10
TORSDOF 3
ENDMDL
