MODEL 1
REMARK VINA RESULT:    -5.148      0.000      0.000
REMARK INTER + INTRA:          -6.483
REMARK INTER:                  -6.201
REMARK INTRA:                  -0.282
REMARK UNBOUND:                -0.282
REMARK  Name = 
REMARK  6 active torsions:
REMARK  status: ('A' for Active; 'I' for Inactive)
REMARK    1  A    between atoms: C_3  and  O_4
REMARK    2  A    between atoms: C_5  and  C_6
REMARK    3  A    between atoms: C_9  and  O_10
REMARK    4  A    between atoms: C_11  and  O_12
REMARK    5  A    between atoms: C_17  and  O_18
REMARK    6  A    between atoms: C_20  and  O_21
REMARK                            x       y       z     vdW  Elec       q    Type
REMARK                         _______ _______ _______ _____ _____    ______ ____
ROOT
ATOM      1  O   UNL     1      -0.444 -22.366  47.758  0.00  0.00    -0.283 OA
ATOM      2  C   UNL     1      -0.313 -22.514  46.545  0.00  0.00    +0.238 A 
ATOM      3  C   UNL     1       0.791 -21.841  45.821  0.00  0.00    +0.208 A 
ATOM      4  C   UNL     1       0.893 -22.024  44.493  0.00  0.00    +0.181 A 
ATOM      5  O   UNL     1       0.015 -22.799  43.745  0.00  0.00    -0.451 OA
ATOM      6  C   UNL     1      -1.007 -23.450  44.389  0.00  0.00    +0.147 A 
ATOM      7  C   UNL     1      -1.849 -24.238  43.601  0.00  0.00    +0.092 A 
ATOM      8  C   UNL     1      -2.905 -24.917  44.204  0.00  0.00    +0.124 A 
ATOM      9  C   UNL     1      -3.132 -24.819  45.574  0.00  0.00    +0.091 A 
ATOM     10  C   UNL     1      -2.289 -24.034  46.355  0.00  0.00    +0.135 A 
ATOM     11  C   UNL     1      -1.224 -23.349  45.761  0.00  0.00    +0.109 A 
ENDROOT
BRANCH   4  12
ATOM     12  C   UNL     1       1.947 -21.393  43.671  0.00  0.00    +0.025 A 
ATOM     13  C   UNL     1       3.017 -22.145  43.152  0.00  0.00    +0.015 A 
ATOM     14  C   UNL     1       3.992 -21.544  42.352  0.00  0.00    +0.050 A 
ATOM     15  C   UNL     1       3.895 -20.193  42.066  0.00  0.00    +0.158 A 
ATOM     16  C   UNL     1       2.841 -19.434  42.566  0.00  0.00    +0.159 A 
ATOM     17  C   UNL     1       1.864 -20.024  43.362  0.00  0.00    +0.060 A 
BRANCH  15  18
ATOM     18  O   UNL     1       4.847 -19.606  41.284  0.00  0.00    -0.503 OA
ATOM     19  H   UNL     1       5.472 -19.201  41.919  0.00  0.00    +0.292 HD
ENDBRANCH  15  18
BRANCH  16  20
ATOM     20  O   UNL     1       2.807 -18.105  42.244  0.00  0.00    -0.503 OA
ATOM     21  H   UNL     1       3.722 -17.798  42.123  0.00  0.00    +0.292 HD
ENDBRANCH  16  20
ENDBRANCH   4  12
BRANCH   3  22
ATOM     22  O   UNL     1       1.643 -21.048  46.566  0.00  0.00    -0.501 OA
ATOM     23  H   UNL     1       1.471 -20.129  46.271  0.00  0.00    +0.292 HD
ENDBRANCH   3  22
BRANCH   8  24
ATOM     24  O   UNL     1      -3.752 -25.699  43.476  0.00  0.00    -0.507 OA
ATOM     25  H   UNL     1      -4.524 -25.175  43.206  0.00  0.00    +0.292 HD
ENDBRANCH   8  24
BRANCH  10  26
ATOM     26  O   UNL     1      -2.559 -23.976  47.695  0.00  0.00    -0.506 OA
ATOM     27  H   UNL     1      -1.865 -24.478  48.178  0.00  0.00    +0.292 HD
ENDBRANCH  10  26
TORSDOF 6
ENDMDL
MODEL 2
REMARK VINA RESULT:    -5.072      5.476      7.617
REMARK INTER + INTRA:          -6.392
REMARK INTER:                  -6.100
REMARK INTRA:                  -0.292
REMARK UNBOUND:                -0.282
REMARK  Name = 
REMARK  6 active torsions:
REMARK  status: ('A' for Active; 'I' for Inactive)
REMARK    1  A    between atoms: C_3  and  O_4
REMARK    2  A    between atoms: C_5  and  C_6
REMARK    3  A    between atoms: C_9  and  O_10
REMARK    4  A    between atoms: C_11  and  O_12
REMARK    5  A    between atoms: C_17  and  O_18
REMARK    6  A    between atoms: C_20  and  O_21
REMARK                            x       y       z     vdW  Elec       q    Type
REMARK                         _______ _______ _______ _____ _____    ______ ____
ROOT
ATOM      1  O   UNL     1       3.415 -24.388  52.463  0.00  0.00    -0.283 OA
ATOM      2  C   UNL     1       2.859 -23.417  51.953  0.00  0.00    +0.238 A 
ATOM      3  C   UNL     1       2.722 -23.316  50.482  0.00  0.00    +0.208 A 
ATOM      4  C   UNL     1       2.113 -22.233  49.966  0.00  0.00    +0.181 A 
ATOM      5  O   UNL     1       1.610 -21.187  50.730  0.00  0.00    -0.451 OA
ATOM      6  C   UNL     1       1.705 -21.260  52.096  0.00  0.00    +0.147 A 
ATOM      7  C   UNL     1       1.163 -20.197  52.824  0.00  0.00    +0.092 A 
ATOM      8  C   UNL     1       1.236 -20.219  54.215  0.00  0.00    +0.124 A 
ATOM      9  C   UNL     1       1.841 -21.279  54.885  0.00  0.00    +0.091 A 
ATOM     10  C   UNL     1       2.377 -22.335  54.155  0.00  0.00    +0.135 A 
ATOM     11  C   UNL     1       2.308 -22.326  52.759  0.00  0.00    +0.109 A 
ENDROOT
BRANCH   4  12
ATOM     12  C   UNL     1       1.933 -22.025  48.514  0.00  0.00    +0.025 A 
ATOM     13  C   UNL     1       0.676 -22.189  47.903  0.00  0.00    +0.015 A 
ATOM     14  C   UNL     1       0.510 -21.961  46.534  0.00  0.00    +0.050 A 
ATOM     15  C   UNL     1       1.600 -21.564  45.778  0.00  0.00    +0.158 A 
ATOM     16  C   UNL     1       2.849 -21.391  46.366  0.00  0.00    +0.159 A 
ATOM     17  C   UNL     1       3.024 -21.615  47.729  0.00  0.00    +0.060 A 
BRANCH  15  18
ATOM     18  O   UNL     1       1.439 -21.341  44.441  0.00  0.00    -0.503 OA
ATOM     19  H   UNL     1       1.039 -22.166  44.100  0.00  0.00    +0.292 HD
ENDBRANCH  15  18
BRANCH  16  20
ATOM     20  O   UNL     1       3.881 -20.998  45.559  0.00  0.00    -0.503 OA
ATOM     21  H   UNL     1       3.678 -21.274  44.648  0.00  0.00    +0.292 HD
ENDBRANCH  16  20
ENDBRANCH   4  12
BRANCH   3  22
ATOM     22  O   UNL     1       3.250 -24.346  49.727  0.00  0.00    -0.501 OA
ATOM     23  H   UNL     1       4.220 -24.302  49.865  0.00  0.00    +0.292 HD
ENDBRANCH   3  22
BRANCH   8  24
ATOM     24  O   UNL     1       0.720 -19.205  54.967  0.00  0.00    -0.507 OA
ATOM     25  H   UNL     1       0.193 -19.578  55.693  0.00  0.00    +0.292 HD
ENDBRANCH   8  24
BRANCH  10  26
ATOM     26  O   UNL     1       2.958 -23.350  54.867  0.00  0.00    -0.506 OA
ATOM     27  H   UNL     1       3.444 -22.963  55.628  0.00  0.00    +0.292 HD
ENDBRANCH  10  26
TORSDOF 6
ENDMDL
MODEL 3
REMARK VINA RESULT:    -5.048      5.179      8.236
REMARK INTER + INTRA:          -6.363
REMARK INTER:                  -6.152
REMARK INTRA:                  -0.211
REMARK UNBOUND:                -0.282
REMARK  Name = 
REMARK  6 active torsions:
REMARK  status: ('A' for Active; 'I' for Inactive)
REMARK    1  A    between atoms: C_3  and  O_4
REMARK    2  A    between atoms: C_5  and  C_6
REMARK    3  A    between atoms: C_9  and  O_10
REMARK    4  A    between atoms: C_11  and  O_12
REMARK    5  A    between atoms: C_17  and  O_18
REMARK    6  A    between atoms: C_20  and  O_21
REMARK                            x       y       z     vdW  Elec       q    Type
REMARK                         _______ _______ _______ _____ _____    ______ ____
ROOT
ATOM      1  O   UNL     1       4.947 -21.030  47.954  0.00  0.00    -0.283 OA
ATOM      2  C   UNL     1       3.853 -21.262  48.463  0.00  0.00    +0.238 A 
ATOM      3  C   UNL     1       3.702 -21.295  49.936  0.00  0.00    +0.208 A 
ATOM      4  C   UNL     1       2.488 -21.561  50.451  0.00  0.00    +0.181 A 
ATOM      5  O   UNL     1       1.359 -21.822  49.685  0.00  0.00    -0.451 OA
ATOM      6  C   UNL     1       1.462 -21.780  48.318  0.00  0.00    +0.147 A 
ATOM      7  C   UNL     1       0.296 -22.024  47.589  0.00  0.00    +0.092 A 
ATOM      8  C   UNL     1       0.346 -21.998  46.197  0.00  0.00    +0.124 A 
ATOM      9  C   UNL     1       1.538 -21.736  45.527  0.00  0.00    +0.091 A 
ATOM     10  C   UNL     1       2.697 -21.493  46.258  0.00  0.00    +0.135 A 
ATOM     11  C   UNL     1       2.658 -21.514  47.656  0.00  0.00    +0.109 A 
ENDROOT
BRANCH   4  12
ATOM     12  C   UNL     1       2.227 -21.630  51.904  0.00  0.00    +0.025 A 
ATOM     13  C   UNL     1       2.826 -22.616  52.709  0.00  0.00    +0.015 A 
ATOM     14  C   UNL     1       2.594 -22.654  54.087  0.00  0.00    +0.050 A 
ATOM     15  C   UNL     1       1.768 -21.703  54.661  0.00  0.00    +0.158 A 
ATOM     16  C   UNL     1       1.171 -20.716  53.881  0.00  0.00    +0.159 A 
ATOM     17  C   UNL     1       1.397 -20.669  52.508  0.00  0.00    +0.060 A 
BRANCH  15  18
ATOM     18  O   UNL     1       1.542 -21.738  56.006  0.00  0.00    -0.503 OA
ATOM     19  H   UNL     1       1.577 -22.688  56.236  0.00  0.00    +0.292 HD
ENDBRANCH  15  18
BRANCH  16  20
ATOM     20  O   UNL     1       0.366 -19.808  54.513  0.00  0.00    -0.503 OA
ATOM     21  H   UNL     1      -0.502 -20.221  54.660  0.00  0.00    +0.292 HD
ENDBRANCH  16  20
ENDBRANCH   4  12
BRANCH   3  22
ATOM     22  O   UNL     1       4.835 -21.064  50.693  0.00  0.00    -0.501 OA
ATOM     23  H   UNL     1       4.677 -20.209  51.147  0.00  0.00    +0.292 HD
ENDBRANCH   3  22
BRANCH   8  24
ATOM     24  O   UNL     1      -0.767 -22.228  45.444  0.00  0.00    -0.507 OA
ATOM     25  H   UNL     1      -1.074 -21.392  45.057  0.00  0.00    +0.292 HD
ENDBRANCH   8  24
BRANCH  10  26
ATOM     26  O   UNL     1       3.838 -21.240  45.547  0.00  0.00    -0.506 OA
ATOM     27  H   UNL     1       3.631 -20.594  44.837  0.00  0.00    +0.292 HD
ENDBRANCH  10  26
TORSDOF 6
ENDMDL
MODEL 4
REMARK VINA RESULT:    -4.908      5.888      9.127
REMARK INTER + INTRA:          -6.195
REMARK INTER:                  -5.951
REMARK INTRA:                  -0.244
REMARK UNBOUND:                -0.282
REMARK  Name = 
REMARK  6 active torsions:
REMARK  status: ('A' for Active; 'I' for Inactive)
REMARK    1  A    between atoms: C_3  and  O_4
REMARK    2  A    between atoms: C_5  and  C_6
REMARK    3  A    between atoms: C_9  and  O_10
REMARK    4  A    between atoms: C_11  and  O_12
REMARK    5  A    between atoms: C_17  and  O_18
REMARK    6  A    between atoms: C_20  and  O_21
REMARK                            x       y       z     vdW  Elec       q    Type
REMARK                         _______ _______ _______ _____ _____    ______ ____
ROOT
ATOM      1  O   UNL     1       5.568 -20.866  49.229  0.00  0.00    -0.283 OA
ATOM      2  C   UNL     1       4.400 -21.068  49.553  0.00  0.00    +0.238 A 
ATOM      3  C   UNL     1       4.002 -21.047  50.980  0.00  0.00    +0.208 A 
ATOM      4  C   UNL     1       2.714 -21.282  51.291  0.00  0.00    +0.181 A 
ATOM      5  O   UNL     1       1.726 -21.559  50.354  0.00  0.00    -0.451 OA
ATOM      6  C   UNL     1       2.059 -21.568  49.024  0.00  0.00    +0.147 A 
ATOM      7  C   UNL     1       1.029 -21.826  48.117  0.00  0.00    +0.092 A 
ATOM      8  C   UNL     1       1.313 -21.851  46.753  0.00  0.00    +0.124 A 
ATOM      9  C   UNL     1       2.605 -21.626  46.286  0.00  0.00    +0.091 A 
ATOM     10  C   UNL     1       3.628 -21.367  47.194  0.00  0.00    +0.135 A 
ATOM     11  C   UNL     1       3.354 -21.338  48.565  0.00  0.00    +0.109 A 
ENDROOT
BRANCH   4  12
ATOM     12  C   UNL     1       2.210 -21.295  52.681  0.00  0.00    +0.025 A 
ATOM     13  C   UNL     1       1.330 -20.302  53.148  0.00  0.00    +0.015 A 
ATOM     14  C   UNL     1       0.837 -20.340  54.455  0.00  0.00    +0.050 A 
ATOM     15  C   UNL     1       1.219 -21.374  55.293  0.00  0.00    +0.158 A 
ATOM     16  C   UNL     1       2.084 -22.368  54.846  0.00  0.00    +0.159 A 
ATOM     17  C   UNL     1       2.580 -22.339  53.546  0.00  0.00    +0.060 A 
BRANCH  15  18
ATOM     18  O   UNL     1       0.737 -21.413  56.569  0.00  0.00    -0.503 OA
ATOM     19  H   UNL     1       0.598 -20.474  56.808  0.00  0.00    +0.292 HD
ENDBRANCH  15  18
BRANCH  16  20
ATOM     20  O   UNL     1       2.421 -23.359  55.726  0.00  0.00    -0.503 OA
ATOM     21  H   UNL     1       2.848 -22.949  56.499  0.00  0.00    +0.292 HD
ENDBRANCH  16  20
ENDBRANCH   4  12
BRANCH   3  22
ATOM     22  O   UNL     1       4.995 -20.799  51.909  0.00  0.00    -0.501 OA
ATOM     23  H   UNL     1       4.714 -21.266  52.724  0.00  0.00    +0.292 HD
ENDBRANCH   3  22
BRANCH   8  24
ATOM     24  O   UNL     1       0.340 -22.098  45.831  0.00  0.00    -0.507 OA
ATOM     25  H   UNL     1       0.160 -21.287  45.326  0.00  0.00    +0.292 HD
ENDBRANCH   8  24
BRANCH  10  26
ATOM     26  O   UNL     1       4.877 -21.152  46.678  0.00  0.00    -0.506 OA
ATOM     27  H   UNL     1       4.905 -21.507  45.762  0.00  0.00    +0.292 HD
ENDBRANCH  10  26
TORSDOF 6
ENDMDL
MODEL 5
REMARK VINA RESULT:    -4.881      1.752      3.317
REMARK INTER + INTRA:          -6.162
REMARK INTER:                  -6.062
REMARK INTRA:                  -0.100
REMARK UNBOUND:                -0.282
REMARK  Name = 
REMARK  6 active torsions:
REMARK  status: ('A' for Active; 'I' for Inactive)
REMARK    1  A    between atoms: C_3  and  O_4
REMARK    2  A    between atoms: C_5  and  C_6
REMARK    3  A    between atoms: C_9  and  O_10
REMARK    4  A    between atoms: C_11  and  O_12
REMARK    5  A    between atoms: C_17  and  O_18
REMARK    6  A    between atoms: C_20  and  O_21
REMARK                            x       y       z     vdW  Elec       q    Type
REMARK                         _______ _______ _______ _____ _____    ______ ____
ROOT
ATOM      1  O   UNL     1      -2.245 -25.428  44.236  0.00  0.00    -0.283 OA
ATOM      2  C   UNL     1      -1.813 -24.367  44.681  0.00  0.00    +0.238 A 
ATOM      3  C   UNL     1      -0.656 -23.699  44.042  0.00  0.00    +0.208 A 
ATOM      4  C   UNL     1      -0.212 -22.543  44.566  0.00  0.00    +0.181 A 
ATOM      5  O   UNL     1      -0.764 -21.934  45.687  0.00  0.00    -0.451 OA
ATOM      6  C   UNL     1      -1.848 -22.518  46.291  0.00  0.00    +0.147 A 
ATOM      7  C   UNL     1      -2.385 -21.859  47.398  0.00  0.00    +0.092 A 
ATOM      8  C   UNL     1      -3.485 -22.411  48.052  0.00  0.00    +0.124 A 
ATOM      9  C   UNL     1      -4.050 -23.607  47.618  0.00  0.00    +0.091 A 
ATOM     10  C   UNL     1      -3.512 -24.260  46.513  0.00  0.00    +0.135 A 
ATOM     11  C   UNL     1      -2.409 -23.714  45.848  0.00  0.00    +0.109 A 
ENDROOT
BRANCH   4  12
ATOM     12  C   UNL     1       0.941 -21.798  44.016  0.00  0.00    +0.025 A 
ATOM     13  C   UNL     1       0.831 -20.441  43.660  0.00  0.00    +0.015 A 
ATOM     14  C   UNL     1       1.934 -19.739  43.168  0.00  0.00    +0.050 A 
ATOM     15  C   UNL     1       3.149 -20.392  43.036  0.00  0.00    +0.158 A 
ATOM     16  C   UNL     1       3.277 -21.732  43.388  0.00  0.00    +0.159 A 
ATOM     17  C   UNL     1       2.184 -22.439  43.881  0.00  0.00    +0.060 A 
BRANCH  15  18
ATOM     18  O   UNL     1       4.227 -19.707  42.556  0.00  0.00    -0.503 OA
ATOM     19  H   UNL     1       3.841 -18.944  42.080  0.00  0.00    +0.292 HD
ENDBRANCH  15  18
BRANCH  16  20
ATOM     20  O   UNL     1       4.505 -22.315  43.232  0.00  0.00    -0.503 OA
ATOM     21  H   UNL     1       5.176 -21.611  43.218  0.00  0.00    +0.292 HD
ENDBRANCH  16  20
ENDBRANCH   4  12
BRANCH   3  22
ATOM     22  O   UNL     1      -0.093 -24.324  42.945  0.00  0.00    -0.501 OA
ATOM     23  H   UNL     1       0.684 -23.777  42.702  0.00  0.00    +0.292 HD
ENDBRANCH   3  22
BRANCH   8  24
ATOM     24  O   UNL     1      -4.044 -21.802  49.136  0.00  0.00    -0.507 OA
ATOM     25  H   UNL     1      -3.402 -21.186  49.527  0.00  0.00    +0.292 HD
ENDBRANCH   8  24
BRANCH  10  26
ATOM     26  O   UNL     1      -4.108 -25.430  46.132  0.00  0.00    -0.506 OA
ATOM     27  H   UNL     1      -4.515 -25.303  45.246  0.00  0.00    +0.292 HD
ENDBRANCH  10  26
TORSDOF 6
ENDMDL
MODEL 6
REMARK VINA RESULT:    -4.679      3.697      5.705
REMARK INTER + INTRA:          -5.918
REMARK INTER:                  -5.584
REMARK INTRA:                  -0.333
REMARK UNBOUND:                -0.282
REMARK  Name = 
REMARK  6 active torsions:
REMARK  status: ('A' for Active; 'I' for Inactive)
REMARK    1  A    between atoms: C_3  and  O_4
REMARK    2  A    between atoms: C_5  and  C_6
REMARK    3  A    between atoms: C_9  and  O_10
REMARK    4  A    between atoms: C_11  and  O_12
REMARK    5  A    between atoms: C_17  and  O_18
REMARK    6  A    between atoms: C_20  and  O_21
REMARK                            x       y       z     vdW  Elec       q    Type
REMARK                         _______ _______ _______ _____ _____    ______ ____
ROOT
ATOM      1  O   UNL     1      -6.453 -24.515  47.462  0.00  0.00    -0.283 OA
ATOM      2  C   UNL     1      -6.050 -24.132  46.366  0.00  0.00    +0.238 A 
ATOM      3  C   UNL     1      -4.598 -24.045  46.087  0.00  0.00    +0.208 A 
ATOM      4  C   UNL     1      -4.201 -23.613  44.877  0.00  0.00    +0.181 A 
ATOM      5  O   UNL     1      -5.072 -23.227  43.865  0.00  0.00    -0.451 OA
ATOM      6  C   UNL     1      -6.423 -23.314  44.085  0.00  0.00    +0.147 A 
ATOM      7  C   UNL     1      -7.260 -22.940  43.032  0.00  0.00    +0.092 A 
ATOM      8  C   UNL     1      -8.641 -23.005  43.204  0.00  0.00    +0.124 A 
ATOM      9  C   UNL     1      -9.194 -23.433  44.407  0.00  0.00    +0.091 A 
ATOM     10  C   UNL     1      -8.356 -23.807  45.454  0.00  0.00    +0.135 A 
ATOM     11  C   UNL     1      -6.968 -23.748  45.292  0.00  0.00    +0.109 A 
ENDROOT
BRANCH   4  12
ATOM     12  C   UNL     1      -2.780 -23.477  44.495  0.00  0.00    +0.025 A 
ATOM     13  C   UNL     1      -2.047 -24.573  44.003  0.00  0.00    +0.015 A 
ATOM     14  C   UNL     1      -0.712 -24.427  43.619  0.00  0.00    +0.050 A 
ATOM     15  C   UNL     1      -0.110 -23.184  43.721  0.00  0.00    +0.158 A 
ATOM     16  C   UNL     1      -0.821 -22.087  44.200  0.00  0.00    +0.159 A 
ATOM     17  C   UNL     1      -2.152 -22.223  44.584  0.00  0.00    +0.060 A 
BRANCH  15  18
ATOM     18  O   UNL     1       1.193 -23.040  43.344  0.00  0.00    -0.503 OA
ATOM     19  H   UNL     1       1.403 -23.865  42.863  0.00  0.00    +0.292 HD
ENDBRANCH  15  18
BRANCH  16  20
ATOM     20  O   UNL     1      -0.165 -20.889  44.275  0.00  0.00    -0.503 OA
ATOM     21  H   UNL     1       0.742 -21.057  44.586  0.00  0.00    +0.292 HD
ENDBRANCH  16  20
ENDBRANCH   4  12
BRANCH   3  22
ATOM     22  O   UNL     1      -3.737 -24.402  47.107  0.00  0.00    -0.501 OA
ATOM     23  H   UNL     1      -3.809 -23.687  47.774  0.00  0.00    +0.292 HD
ENDBRANCH   3  22
BRANCH   8  24
ATOM     24  O   UNL     1      -9.497 -22.651  42.203  0.00  0.00    -0.507 OA
ATOM     25  H   UNL     1      -9.687 -23.428  41.651  0.00  0.00    +0.292 HD
ENDBRANCH   8  24
BRANCH  10  26
ATOM     26  O   UNL     1      -8.955 -24.220  46.612  0.00  0.00    -0.506 OA
ATOM     27  H   UNL     1      -8.456 -23.851  47.374  0.00  0.00    +0.292 HD
ENDBRANCH  10  26
TORSDOF 6
ENDMDL
MODEL 7
REMARK VINA RESULT:    -4.568      7.946     10.349
REMARK INTER + INTRA:          -5.784
REMARK INTER:                  -5.527
REMARK INTRA:                  -0.257
REMARK UNBOUND:                -0.282
REMARK  Name = 
REMARK  6 active torsions:
REMARK  status: ('A' for Active; 'I' for Inactive)
REMARK    1  A    between atoms: C_3  and  O_4
REMARK    2  A    between atoms: C_5  and  C_6
REMARK    3  A    between atoms: C_9  and  O_10
REMARK    4  A    between atoms: C_11  and  O_12
REMARK    5  A    between atoms: C_17  and  O_18
REMARK    6  A    between atoms: C_20  and  O_21
REMARK                            x       y       z     vdW  Elec       q    Type
REMARK                         _______ _______ _______ _____ _____    ______ ____
ROOT
ATOM      1  O   UNL     1       3.416 -17.721  54.680  0.00  0.00    -0.283 OA
ATOM      2  C   UNL     1       2.844 -18.782  54.439  0.00  0.00    +0.238 A 
ATOM      3  C   UNL     1       2.673 -19.243  53.042  0.00  0.00    +0.208 A 
ATOM      4  C   UNL     1       2.035 -20.407  52.823  0.00  0.00    +0.181 A 
ATOM      5  O   UNL     1       1.509 -21.207  53.831  0.00  0.00    -0.451 OA
ATOM      6  C   UNL     1       1.668 -20.817  55.136  0.00  0.00    +0.147 A 
ATOM      7  C   UNL     1       1.146 -21.664  56.116  0.00  0.00    +0.092 A 
ATOM      8  C   UNL     1       1.276 -21.314  57.458  0.00  0.00    +0.124 A 
ATOM      9  C   UNL     1       1.914 -20.134  57.832  0.00  0.00    +0.091 A 
ATOM     10  C   UNL     1       2.434 -19.294  56.852  0.00  0.00    +0.135 A 
ATOM     11  C   UNL     1       2.311 -19.637  55.502  0.00  0.00    +0.109 A 
ENDROOT
BRANCH   4  12
ATOM     12  C   UNL     1       1.799 -20.955  51.471  0.00  0.00    +0.025 A 
ATOM     13  C   UNL     1       0.887 -20.352  50.586  0.00  0.00    +0.015 A 
ATOM     14  C   UNL     1       0.693 -20.862  49.300  0.00  0.00    +0.050 A 
ATOM     15  C   UNL     1       1.415 -21.972  48.896  0.00  0.00    +0.158 A 
ATOM     16  C   UNL     1       2.326 -22.578  49.755  0.00  0.00    +0.159 A 
ATOM     17  C   UNL     1       2.527 -22.077  51.038  0.00  0.00    +0.060 A 
BRANCH  15  18
ATOM     18  O   UNL     1       1.227 -22.469  47.639  0.00  0.00    -0.503 OA
ATOM     19  H   UNL     1       0.419 -23.017  47.710  0.00  0.00    +0.292 HD
ENDBRANCH  15  18
BRANCH  16  20
ATOM     20  O   UNL     1       3.005 -23.671  49.291  0.00  0.00    -0.503 OA
ATOM     21  H   UNL     1       3.381 -23.450  48.421  0.00  0.00    +0.292 HD
ENDBRANCH  16  20
ENDBRANCH   4  12
BRANCH   3  22
ATOM     22  O   UNL     1       3.172 -18.429  52.043  0.00  0.00    -0.501 OA
ATOM     23  H   UNL     1       4.060 -18.149  52.352  0.00  0.00    +0.292 HD
ENDBRANCH   3  22
BRANCH   8  24
ATOM     24  O   UNL     1       0.784 -22.110  58.449  0.00  0.00    -0.507 OA
ATOM     25  H   UNL     1       1.123 -23.013  58.336  0.00  0.00    +0.292 HD
ENDBRANCH   8  24
BRANCH  10  26
ATOM     26  O   UNL     1       3.051 -18.149  57.278  0.00  0.00    -0.506 OA
ATOM     27  H   UNL     1       3.239 -17.583  56.497  0.00  0.00    +0.292 HD
ENDBRANCH  10  26
TORSDOF 6
ENDMDL
MODEL 8
REMARK VINA RESULT:    -4.556      3.212      4.469
REMARK INTER + INTRA:          -5.771
REMARK INTER:                  -5.452
REMARK INTRA:                  -0.318
REMARK UNBOUND:                -0.282
REMARK  Name = 
REMARK  6 active torsions:
REMARK  status: ('A' for Active; 'I' for Inactive)
REMARK    1  A    between atoms: C_3  and  O_4
REMARK    2  A    between atoms: C_5  and  C_6
REMARK    3  A    between atoms: C_9  and  O_10
REMARK    4  A    between atoms: C_11  and  O_12
REMARK    5  A    between atoms: C_17  and  O_18
REMARK    6  A    between atoms: C_20  and  O_21
REMARK                            x       y       z     vdW  Elec       q    Type
REMARK                         _______ _______ _______ _____ _____    ______ ____
ROOT
ATOM      1  O   UNL     1      -3.571 -19.846  49.185  0.00  0.00    -0.283 OA
ATOM      2  C   UNL     1      -2.985 -20.766  48.619  0.00  0.00    +0.238 A 
ATOM      3  C   UNL     1      -1.536 -20.669  48.328  0.00  0.00    +0.208 A 
ATOM      4  C   UNL     1      -0.937 -21.696  47.700  0.00  0.00    +0.181 A 
ATOM      5  O   UNL     1      -1.597 -22.848  47.289  0.00  0.00    -0.451 OA
ATOM      6  C   UNL     1      -2.936 -22.976  47.559  0.00  0.00    +0.147 A 
ATOM      7  C   UNL     1      -3.552 -24.160  47.150  0.00  0.00    +0.092 A 
ATOM      8  C   UNL     1      -4.911 -24.340  47.396  0.00  0.00    +0.124 A 
ATOM      9  C   UNL     1      -5.660 -23.357  48.039  0.00  0.00    +0.091 A 
ATOM     10  C   UNL     1      -5.040 -22.179  48.446  0.00  0.00    +0.135 A 
ATOM     11  C   UNL     1      -3.676 -21.989  48.206  0.00  0.00    +0.109 A 
ENDROOT
BRANCH   4  12
ATOM     12  C   UNL     1       0.500 -21.701  47.352  0.00  0.00    +0.025 A 
ATOM     13  C   UNL     1       0.942 -21.334  46.068  0.00  0.00    +0.015 A 
ATOM     14  C   UNL     1       2.305 -21.315  45.758  0.00  0.00    +0.050 A 
ATOM     15  C   UNL     1       3.225 -21.656  46.735  0.00  0.00    +0.158 A 
ATOM     16  C   UNL     1       2.806 -22.017  48.012  0.00  0.00    +0.159 A 
ATOM     17  C   UNL     1       1.452 -22.038  48.330  0.00  0.00    +0.060 A 
BRANCH  15  18
ATOM     18  O   UNL     1       4.556 -21.637  46.433  0.00  0.00    -0.503 OA
ATOM     19  H   UNL     1       4.589 -21.704  45.458  0.00  0.00    +0.292 HD
ENDBRANCH  15  18
BRANCH  16  20
ATOM     20  O   UNL     1       3.769 -22.343  48.927  0.00  0.00    -0.503 OA
ATOM     21  H   UNL     1       4.227 -21.526  49.193  0.00  0.00    +0.292 HD
ENDBRANCH  16  20
ENDBRANCH   4  12
BRANCH   3  22
ATOM     22  O   UNL     1      -0.891 -19.509  48.714  0.00  0.00    -0.501 OA
ATOM     23  H   UNL     1      -0.691 -19.031  47.881  0.00  0.00    +0.292 HD
ENDBRANCH   3  22
BRANCH   8  24
ATOM     24  O   UNL     1      -5.555 -25.480  47.016  0.00  0.00    -0.507 OA
ATOM     25  H   UNL     1      -5.949 -25.352  46.137  0.00  0.00    +0.292 HD
ENDBRANCH   8  24
BRANCH  10  26
ATOM     26  O   UNL     1      -5.825 -21.250  49.073  0.00  0.00    -0.506 OA
ATOM     27  H   UNL     1      -5.303 -20.832  49.793  0.00  0.00    +0.292 HD
ENDBRANCH  10  26
TORSDOF 6
ENDMDL
MODEL 9
REMARK VINA RESULT:    -4.534      7.823     10.791
REMARK INTER + INTRA:          -5.743
REMARK INTER:                  -5.431
REMARK INTRA:                  -0.312
REMARK UNBOUND:                -0.282
REMARK  Name = 
REMARK  6 active torsions:
REMARK  status: ('A' for Active; 'I' for Inactive)
REMARK    1  A    between atoms: C_3  and  O_4
REMARK    2  A    between atoms: C_5  and  C_6
REMARK    3  A    between atoms: C_9  and  O_10
REMARK    4  A    between atoms: C_11  and  O_12
REMARK    5  A    between atoms: C_17  and  O_18
REMARK    6  A    between atoms: C_20  and  O_21
REMARK                            x       y       z     vdW  Elec       q    Type
REMARK                         _______ _______ _______ _____ _____    ______ ____
ROOT
ATOM      1  O   UNL     1       3.646 -24.264  51.399  0.00  0.00    -0.283 OA
ATOM      2  C   UNL     1       3.113 -23.248  51.842  0.00  0.00    +0.238 A 
ATOM      3  C   UNL     1       3.147 -22.953  53.293  0.00  0.00    +0.208 A 
ATOM      4  C   UNL     1       2.544 -21.835  53.735  0.00  0.00    +0.181 A 
ATOM      5  O   UNL     1       1.874 -20.936  52.913  0.00  0.00    -0.451 OA
ATOM      6  C   UNL     1       1.841 -21.172  51.562  0.00  0.00    +0.147 A 
ATOM      7  C   UNL     1       1.178 -20.230  50.773  0.00  0.00    +0.092 A 
ATOM      8  C   UNL     1       1.110 -20.423  49.395  0.00  0.00    +0.124 A 
ATOM      9  C   UNL     1       1.690 -21.539  48.799  0.00  0.00    +0.091 A 
ATOM     10  C   UNL     1       2.351 -22.475  49.590  0.00  0.00    +0.135 A 
ATOM     11  C   UNL     1       2.427 -22.290  50.974  0.00  0.00    +0.109 A 
ENDROOT
BRANCH   4  12
ATOM     12  C   UNL     1       2.507 -21.448  55.161  0.00  0.00    +0.025 A 
ATOM     13  C   UNL     1       3.623 -20.865  55.789  0.00  0.00    +0.015 A 
ATOM     14  C   UNL     1       3.568 -20.477  57.130  0.00  0.00    +0.050 A 
ATOM     15  C   UNL     1       2.396 -20.667  57.842  0.00  0.00    +0.158 A 
ATOM     16  C   UNL     1       1.280 -21.237  57.236  0.00  0.00    +0.159 A 
ATOM     17  C   UNL     1       1.325 -21.625  55.900  0.00  0.00    +0.060 A 
BRANCH  15  18
ATOM     18  O   UNL     1       2.341 -20.287  59.152  0.00  0.00    -0.503 OA
ATOM     19  H   UNL     1       2.155 -19.327  59.122  0.00  0.00    +0.292 HD
ENDBRANCH  15  18
BRANCH  16  20
ATOM     20  O   UNL     1       0.155 -21.395  57.998  0.00  0.00    -0.503 OA
ATOM     21  H   UNL     1       0.148 -20.700  58.679  0.00  0.00    +0.292 HD
ENDBRANCH  16  20
ENDBRANCH   4  12
BRANCH   3  22
ATOM     22  O   UNL     1       3.790 -23.865  54.108  0.00  0.00    -0.501 OA
ATOM     23  H   UNL     1       4.612 -23.418  54.404  0.00  0.00    +0.292 HD
ENDBRANCH   3  22
BRANCH   8  24
ATOM     24  O   UNL     1       0.476 -19.529  48.585  0.00  0.00    -0.507 OA
ATOM     25  H   UNL     1       1.023 -18.732  48.491  0.00  0.00    +0.292 HD
ENDBRANCH   8  24
BRANCH  10  26
ATOM     26  O   UNL     1       2.903 -23.551  48.949  0.00  0.00    -0.506 OA
ATOM     27  H   UNL     1       3.152 -24.223  49.621  0.00  0.00    +0.292 HD
ENDBRANCH  10  26
TORSDOF 6
ENDMDL
