MODEL 1
REMARK VINA RESULT:    -3.739      0.000      0.000
REMARK INTER + INTRA:          -4.934
REMARK INTER:                  -4.614
REMARK INTRA:                  -0.320
REMARK UNBOUND:                -0.320
REMARK  Name = 
REMARK  5 active torsions:
REMARK  status: ('A' for Active; 'I' for Inactive)
REMARK    1  A    between atoms: C_2  and  C_3
REMARK    2  A    between atoms: C_3  and  N_4
REMARK    3  A    between atoms: N_4  and  C_5
REMARK    4  A    between atoms: N_4  and  C_6
REMARK    5  A    between atoms: C_6  and  C_7
REMARK                            x       y       z     vdW  Elec       q    Type
REMARK                         _______ _______ _______ _____ _____    ______ ____
ROOT
ATOM      1  C   UNL     1       0.421 -21.744  44.635  0.00  0.00    +0.120 C 
ENDROOT
BRANCH   1   2
ATOM      2  C   UNL     1       1.600 -21.313  43.786  0.00  0.00    -0.033 A 
ATOM      3  C   UNL     1       2.597 -22.233  43.426  0.00  0.00    +0.005 A 
ATOM      4  C   UNL     1       3.672 -21.839  42.627  0.00  0.00    +0.000 A 
ATOM      5  C   UNL     1       3.757 -20.525  42.173  0.00  0.00    +0.000 A 
ATOM      6  C   UNL     1       2.770 -19.604  42.516  0.00  0.00    +0.000 A 
ATOM      7  C   UNL     1       1.694 -19.996  43.315  0.00  0.00    +0.005 A 
ENDBRANCH   1   2
BRANCH   1   8
ATOM      8  N   UNL     1      -0.737 -22.213  43.852  0.00  0.00    -0.290 NA
ATOM      9  C   UNL     1      -1.806 -21.211  43.920  0.00  0.00    +0.106 C 
BRANCH   8  10
ATOM     10  C   UNL     1      -1.209 -23.520  44.345  0.00  0.00    +0.173 C 
BRANCH  10  12
ATOM     11  C   UNL     1      -0.466 -25.520  42.731  0.00  0.00    +0.005 C 
ATOM     12  C   UNL     1      -0.803 -24.622  43.454  0.00  0.00    -0.090 C 
ENDBRANCH  10  12
ENDBRANCH   8  10
ENDBRANCH   1   8
TORSDOF 4
ENDMDL
MODEL 2
REMARK VINA RESULT:    -3.636      1.600      5.060
REMARK INTER + INTRA:          -4.807
REMARK INTER:                  -4.365
REMARK INTRA:                  -0.441
REMARK UNBOUND:                -0.320
REMARK  Name = 
REMARK  5 active torsions:
REMARK  status: ('A' for Active; 'I' for Inactive)
REMARK    1  A    between atoms: C_2  and  C_3
REMARK    2  A    between atoms: C_3  and  N_4
REMARK    3  A    between atoms: N_4  and  C_5
REMARK    4  A    between atoms: N_4  and  C_6
REMARK    5  A    between atoms: C_6  and  C_7
REMARK                            x       y       z     vdW  Elec       q    Type
REMARK                         _______ _______ _______ _____ _____    ______ ____
ROOT
ATOM      1  C   UNL     1      -0.148 -22.625  44.519  0.00  0.00    +0.120 C 
ENDROOT
BRANCH   1   2
ATOM      2  C   UNL     1      -0.966 -23.671  43.790  0.00  0.00    -0.033 A 
ATOM      3  C   UNL     1      -0.338 -24.725  43.109  0.00  0.00    +0.005 A 
ATOM      4  C   UNL     1      -1.094 -25.700  42.456  0.00  0.00    +0.000 A 
ATOM      5  C   UNL     1      -2.486 -25.636  42.482  0.00  0.00    +0.000 A 
ATOM      6  C   UNL     1      -3.122 -24.599  43.161  0.00  0.00    +0.000 A 
ATOM      7  C   UNL     1      -2.368 -23.623  43.815  0.00  0.00    +0.005 A 
ENDBRANCH   1   2
BRANCH   1   8
ATOM      8  N   UNL     1       0.718 -21.822  43.633  0.00  0.00    -0.290 NA
ATOM      9  C   UNL     1       2.123 -22.068  43.976  0.00  0.00    +0.106 C 
BRANCH   8  10
ATOM     10  C   UNL     1       0.392 -20.389  43.742  0.00  0.00    +0.173 C 
BRANCH  10  12
ATOM     11  C   UNL     1      -2.117 -19.881  42.965  0.00  0.00    +0.005 C 
ATOM     12  C   UNL     1      -0.991 -20.106  43.316  0.00  0.00    -0.090 C 
ENDBRANCH  10  12
ENDBRANCH   8  10
ENDBRANCH   1   8
TORSDOF 4
ENDMDL
MODEL 3
REMARK VINA RESULT:    -3.616      4.171      5.520
REMARK INTER + INTRA:          -4.781
REMARK INTER:                  -4.357
REMARK INTRA:                  -0.425
REMARK UNBOUND:                -0.320
REMARK  Name = 
REMARK  5 active torsions:
REMARK  status: ('A' for Active; 'I' for Inactive)
REMARK    1  A    between atoms: C_2  and  C_3
REMARK    2  A    between atoms: C_3  and  N_4
REMARK    3  A    between atoms: N_4  and  C_5
REMARK    4  A    between atoms: N_4  and  C_6
REMARK    5  A    between atoms: C_6  and  C_7
REMARK                            x       y       z     vdW  Elec       q    Type
REMARK                         _______ _______ _______ _____ _____    ______ ____
ROOT
ATOM      1  C   UNL     1      -2.945 -23.499  45.409  0.00  0.00    +0.120 C 
ENDROOT
BRANCH   1   2
ATOM      2  C   UNL     1      -2.438 -24.255  44.198  0.00  0.00    -0.033 A 
ATOM      3  C   UNL     1      -1.072 -24.549  44.059  0.00  0.00    +0.005 A 
ATOM      4  C   UNL     1      -0.609 -25.264  42.953  0.00  0.00    +0.000 A 
ATOM      5  C   UNL     1      -1.506 -25.700  41.979  0.00  0.00    +0.000 A 
ATOM      6  C   UNL     1      -2.865 -25.423  42.111  0.00  0.00    +0.000 A 
ATOM      7  C   UNL     1      -3.330 -24.707  43.216  0.00  0.00    +0.005 A 
ENDBRANCH   1   2
BRANCH   1   8
ATOM      8  N   UNL     1      -2.949 -24.295  46.651  0.00  0.00    -0.290 NA
ATOM      9  C   UNL     1      -4.307 -24.788  46.906  0.00  0.00    +0.106 C 
BRANCH   8  10
ATOM     10  C   UNL     1      -2.456 -23.496  47.787  0.00  0.00    +0.173 C 
BRANCH  10  12
ATOM     11  C   UNL     1      -0.006 -22.519  47.339  0.00  0.00    +0.005 C 
ATOM     12  C   UNL     1      -1.106 -22.959  47.536  0.00  0.00    -0.090 C 
ENDBRANCH  10  12
ENDBRANCH   8  10
ENDBRANCH   1   8
TORSDOF 4
ENDMDL
MODEL 4
REMARK VINA RESULT:    -3.615      8.221      9.533
REMARK INTER + INTRA:          -4.780
REMARK INTER:                  -4.399
REMARK INTRA:                  -0.382
REMARK UNBOUND:                -0.320
REMARK  Name = 
REMARK  5 active torsions:
REMARK  status: ('A' for Active; 'I' for Inactive)
REMARK    1  A    between atoms: C_2  and  C_3
REMARK    2  A    between atoms: C_3  and  N_4
REMARK    3  A    between atoms: N_4  and  C_5
REMARK    4  A    between atoms: N_4  and  C_6
REMARK    5  A    between atoms: C_6  and  C_7
REMARK                            x       y       z     vdW  Elec       q    Type
REMARK                         _______ _______ _______ _____ _____    ______ ____
ROOT
ATOM      1  C   UNL     1       2.171 -21.176  50.936  0.00  0.00    +0.120 C 
ENDROOT
BRANCH   1   2
ATOM      2  C   UNL     1       1.924 -21.262  52.429  0.00  0.00    -0.033 A 
ATOM      3  C   UNL     1       2.614 -22.198  53.216  0.00  0.00    +0.005 A 
ATOM      4  C   UNL     1       2.400 -22.262  54.594  0.00  0.00    +0.000 A 
ATOM      5  C   UNL     1       1.503 -21.387  55.201  0.00  0.00    +0.000 A 
ATOM      6  C   UNL     1       0.818 -20.447  54.433  0.00  0.00    +0.000 A 
ATOM      7  C   UNL     1       1.030 -20.382  53.055  0.00  0.00    +0.005 A 
ENDBRANCH   1   2
BRANCH   1   8
ATOM      8  N   UNL     1       3.270 -22.039  50.463  0.00  0.00    -0.290 NA
ATOM      9  C   UNL     1       4.211 -21.235  49.675  0.00  0.00    +0.106 C 
BRANCH   8  10
ATOM     10  C   UNL     1       2.748 -23.166  49.671  0.00  0.00    +0.173 C 
BRANCH  10  12
ATOM     11  C   UNL     1       2.591 -25.407  51.123  0.00  0.00    +0.005 C 
ATOM     12  C   UNL     1       2.661 -24.404  50.467  0.00  0.00    -0.090 C 
ENDBRANCH  10  12
ENDBRANCH   8  10
ENDBRANCH   1   8
TORSDOF 4
ENDMDL
MODEL 5
REMARK VINA RESULT:    -3.586      3.919      5.349
REMARK INTER + INTRA:          -4.745
REMARK INTER:                  -4.296
REMARK INTRA:                  -0.448
REMARK UNBOUND:                -0.320
REMARK  Name = 
REMARK  5 active torsions:
REMARK  status: ('A' for Active; 'I' for Inactive)
REMARK    1  A    between atoms: C_2  and  C_3
REMARK    2  A    between atoms: C_3  and  N_4
REMARK    3  A    between atoms: N_4  and  C_5
REMARK    4  A    between atoms: N_4  and  C_6
REMARK    5  A    between atoms: C_6  and  C_7
REMARK                            x       y       z     vdW  Elec       q    Type
REMARK                         _______ _______ _______ _____ _____    ______ ____
ROOT
ATOM      1  C   UNL     1      -3.086 -22.980  44.930  0.00  0.00    +0.120 C 
ENDROOT
BRANCH   1   2
ATOM      2  C   UNL     1      -2.400 -23.946  43.985  0.00  0.00    -0.033 A 
ATOM      3  C   UNL     1      -3.150 -24.726  43.091  0.00  0.00    +0.005 A 
ATOM      4  C   UNL     1      -2.516 -25.601  42.207  0.00  0.00    +0.000 A 
ATOM      5  C   UNL     1      -1.126 -25.700  42.202  0.00  0.00    +0.000 A 
ATOM      6  C   UNL     1      -0.369 -24.925  43.078  0.00  0.00    +0.000 A 
ATOM      7  C   UNL     1      -1.002 -24.050  43.963  0.00  0.00    +0.005 A 
ENDBRANCH   1   2
BRANCH   1   8
ATOM      8  N   UNL     1      -3.597 -23.612  46.161  0.00  0.00    -0.290 NA
ATOM      9  C   UNL     1      -5.061 -23.674  46.102  0.00  0.00    +0.106 C 
BRANCH   8  10
ATOM     10  C   UNL     1      -3.149 -22.873  47.355  0.00  0.00    +0.173 C 
BRANCH  10  12
ATOM     11  C   UNL     1      -0.501 -23.039  47.702  0.00  0.00    +0.005 C 
ATOM     12  C   UNL     1      -1.689 -22.965  47.542  0.00  0.00    -0.090 C 
ENDBRANCH  10  12
ENDBRANCH   8  10
ENDBRANCH   1   8
TORSDOF 4
ENDMDL
MODEL 6
REMARK VINA RESULT:    -3.582      3.036      4.958
REMARK INTER + INTRA:          -4.739
REMARK INTER:                  -4.331
REMARK INTRA:                  -0.408
REMARK UNBOUND:                -0.320
REMARK  Name = 
REMARK  5 active torsions:
REMARK  status: ('A' for Active; 'I' for Inactive)
REMARK    1  A    between atoms: C_2  and  C_3
REMARK    2  A    between atoms: C_3  and  N_4
REMARK    3  A    between atoms: N_4  and  C_5
REMARK    4  A    between atoms: N_4  and  C_6
REMARK    5  A    between atoms: C_6  and  C_7
REMARK                            x       y       z     vdW  Elec       q    Type
REMARK                         _______ _______ _______ _____ _____    ______ ____
ROOT
ATOM      1  C   UNL     1      -0.400 -22.666  44.506  0.00  0.00    +0.120 C 
ENDROOT
BRANCH   1   2
ATOM      2  C   UNL     1      -1.168 -23.719  43.734  0.00  0.00    -0.033 A 
ATOM      3  C   UNL     1      -0.490 -24.718  43.018  0.00  0.00    +0.005 A 
ATOM      4  C   UNL     1      -1.198 -25.700  42.323  0.00  0.00    +0.000 A 
ATOM      5  C   UNL     1      -2.591 -25.699  42.344  0.00  0.00    +0.000 A 
ATOM      6  C   UNL     1      -3.277 -24.719  43.058  0.00  0.00    +0.000 A 
ATOM      7  C   UNL     1      -2.570 -23.736  43.753  0.00  0.00    +0.005 A 
ENDBRANCH   1   2
BRANCH   1   8
ATOM      8  N   UNL     1      -1.147 -22.101  45.647  0.00  0.00    -0.290 NA
ATOM      9  C   UNL     1      -1.246 -20.646  45.489  0.00  0.00    +0.106 C 
BRANCH   8  10
ATOM     10  C   UNL     1      -0.496 -22.450  46.923  0.00  0.00    +0.173 C 
BRANCH  10  12
ATOM     11  C   UNL     1      -1.606 -24.612  48.041  0.00  0.00    +0.005 C 
ATOM     12  C   UNL     1      -1.106 -23.641  47.543  0.00  0.00    -0.090 C 
ENDBRANCH  10  12
ENDBRANCH   8  10
ENDBRANCH   1   8
TORSDOF 4
ENDMDL
MODEL 7
REMARK VINA RESULT:    -3.505      3.711      5.224
REMARK INTER + INTRA:          -4.645
REMARK INTER:                  -4.232
REMARK INTRA:                  -0.412
REMARK UNBOUND:                -0.320
REMARK  Name = 
REMARK  5 active torsions:
REMARK  status: ('A' for Active; 'I' for Inactive)
REMARK    1  A    between atoms: C_2  and  C_3
REMARK    2  A    between atoms: C_3  and  N_4
REMARK    3  A    between atoms: N_4  and  C_5
REMARK    4  A    between atoms: N_4  and  C_6
REMARK    5  A    between atoms: C_6  and  C_7
REMARK                            x       y       z     vdW  Elec       q    Type
REMARK                         _______ _______ _______ _____ _____    ______ ____
ROOT
ATOM      1  C   UNL     1      -1.140 -22.910  45.118  0.00  0.00    +0.120 C 
ENDROOT
BRANCH   1   2
ATOM      2  C   UNL     1      -1.601 -23.900  44.067  0.00  0.00    -0.033 A 
ATOM      3  C   UNL     1      -2.951 -23.965  43.688  0.00  0.00    +0.005 A 
ATOM      4  C   UNL     1      -3.370 -24.863  42.706  0.00  0.00    +0.000 A 
ATOM      5  C   UNL     1      -2.445 -25.700  42.086  0.00  0.00    +0.000 A 
ATOM      6  C   UNL     1      -1.101 -25.640  42.446  0.00  0.00    +0.000 A 
ATOM      7  C   UNL     1      -0.679 -24.742  43.429  0.00  0.00    +0.005 A 
ENDBRANCH   1   2
BRANCH   1   8
ATOM      8  N   UNL     1      -2.133 -22.663  46.180  0.00  0.00    -0.290 NA
ATOM      9  C   UNL     1      -2.520 -21.248  46.161  0.00  0.00    +0.106 C 
BRANCH   8  10
ATOM     10  C   UNL     1      -1.596 -23.044  47.499  0.00  0.00    +0.173 C 
BRANCH  10  12
ATOM     11  C   UNL     1      -1.553 -25.699  47.823  0.00  0.00    +0.005 C 
ATOM     12  C   UNL     1      -1.568 -24.507  47.678  0.00  0.00    -0.090 C 
ENDBRANCH  10  12
ENDBRANCH   8  10
ENDBRANCH   1   8
TORSDOF 4
ENDMDL
MODEL 8
REMARK VINA RESULT:    -3.503      1.946      5.133
REMARK INTER + INTRA:          -4.642
REMARK INTER:                  -4.285
REMARK INTRA:                  -0.358
REMARK UNBOUND:                -0.320
REMARK  Name = 
REMARK  5 active torsions:
REMARK  status: ('A' for Active; 'I' for Inactive)
REMARK    1  A    between atoms: C_2  and  C_3
REMARK    2  A    between atoms: C_3  and  N_4
REMARK    3  A    between atoms: N_4  and  C_5
REMARK    4  A    between atoms: N_4  and  C_6
REMARK    5  A    between atoms: C_6  and  C_7
REMARK                            x       y       z     vdW  Elec       q    Type
REMARK                         _______ _______ _______ _____ _____    ______ ____
ROOT
ATOM      1  C   UNL     1      -1.980 -24.016  45.969  0.00  0.00    +0.120 C 
ENDROOT
BRANCH   1   2
ATOM      2  C   UNL     1      -1.974 -24.556  44.554  0.00  0.00    -0.033 A 
ATOM      3  C   UNL     1      -0.833 -25.185  44.032  0.00  0.00    +0.005 A 
ATOM      4  C   UNL     1      -0.836 -25.700  42.735  0.00  0.00    +0.000 A 
ATOM      5  C   UNL     1      -1.981 -25.601  41.948  0.00  0.00    +0.000 A 
ATOM      6  C   UNL     1      -3.124 -24.987  42.457  0.00  0.00    +0.000 A 
ATOM      7  C   UNL     1      -3.123 -24.471  43.754  0.00  0.00    +0.005 A 
ENDBRANCH   1   2
BRANCH   1   8
ATOM      8  N   UNL     1      -0.820 -23.162  46.286  0.00  0.00    -0.290 NA
ATOM      9  C   UNL     1      -0.839 -22.830  47.715  0.00  0.00    +0.106 C 
BRANCH   8  10
ATOM     10  C   UNL     1      -0.827 -21.941  45.461  0.00  0.00    +0.173 C 
BRANCH  10  12
ATOM     11  C   UNL     1       1.336 -21.786  43.894  0.00  0.00    +0.005 C 
ATOM     12  C   UNL     1       0.367 -21.853  44.601  0.00  0.00    -0.090 C 
ENDBRANCH  10  12
ENDBRANCH   8  10
ENDBRANCH   1   8
TORSDOF 4
ENDMDL
MODEL 9
REMARK VINA RESULT:    -2.556      1.466      4.973
REMARK INTER + INTRA:          -3.474
REMARK INTER:                  -3.021
REMARK INTRA:                  -0.453
REMARK UNBOUND:                -0.320
REMARK  Name = 
REMARK  5 active torsions:
REMARK  status: ('A' for Active; 'I' for Inactive)
REMARK    1  A    between atoms: C_2  and  C_3
REMARK    2  A    between atoms: C_3  and  N_4
REMARK    3  A    between atoms: N_4  and  C_5
REMARK    4  A    between atoms: N_4  and  C_6
REMARK    5  A    between atoms: C_6  and  C_7
REMARK                            x       y       z     vdW  Elec       q    Type
REMARK                         _______ _______ _______ _____ _____    ______ ____
ROOT
ATOM      1  C   UNL     1      -0.587 -22.094  44.524  0.00  0.00    +0.120 C 
ENDROOT
BRANCH   1   2
ATOM      2  C   UNL     1      -1.107 -23.366  43.886  0.00  0.00    -0.033 A 
ATOM      3  C   UNL     1      -2.485 -23.619  43.815  0.00  0.00    +0.005 A 
ATOM      4  C   UNL     1      -2.963 -24.782  43.208  0.00  0.00    +0.000 A 
ATOM      5  C   UNL     1      -2.070 -25.700  42.660  0.00  0.00    +0.000 A 
ATOM      6  C   UNL     1      -0.699 -25.456  42.716  0.00  0.00    +0.000 A 
ATOM      7  C   UNL     1      -0.219 -24.294  43.323  0.00  0.00    +0.005 A 
ENDBRANCH   1   2
BRANCH   1   8
ATOM      8  N   UNL     1       0.368 -22.326  45.624  0.00  0.00    -0.290 NA
ATOM      9  C   UNL     1      -0.317 -22.141  46.908  0.00  0.00    +0.106 C 
BRANCH   8  10
ATOM     10  C   UNL     1       1.528 -21.423  45.511  0.00  0.00    +0.173 C 
BRANCH  10  12
ATOM     11  C   UNL     1       2.999 -21.960  43.342  0.00  0.00    +0.005 C 
ATOM     12  C   UNL     1       2.336 -21.716  44.313  0.00  0.00    -0.090 C 
ENDBRANCH  10  12
ENDBRANCH   8  10
ENDBRANCH   1   8
TORSDOF 4
ENDMDL
