MODEL 1
REMARK VINA RESULT:    -5.641      0.000      0.000
REMARK INTER + INTRA:          -6.595
REMARK INTER:                  -6.301
REMARK INTRA:                  -0.294
REMARK UNBOUND:                -0.294
REMARK  Name = 
REMARK  3 active torsions:
REMARK  status: ('A' for Active; 'I' for Inactive)
REMARK    1  A    between atoms: C_4  and  C_5
REMARK    2  A    between atoms: C_14  and  O_15
REMARK    3  A    between atoms: C_16  and  O_17
REMARK                            x       y       z     vdW  Elec       q    Type
REMARK                         _______ _______ _______ _____ _____    ______ ____
ROOT
ATOM      1  O   UNL     1      25.082  26.567  11.219  0.00  0.00    -0.287 OA
ATOM      2  C   UNL     1      23.971  26.665  10.718  0.00  0.00    +0.193 A 
ATOM      3  C   UNL     1      23.542  25.759   9.640  0.00  0.00    +0.098 A 
ATOM      4  C   UNL     1      22.322  25.904   9.105  0.00  0.00    +0.139 A 
ATOM      5  O   UNL     1      21.399  26.856   9.512  0.00  0.00    -0.454 OA
ATOM      6  C   UNL     1      21.755  27.724  10.513  0.00  0.00    +0.143 A 
ATOM      7  C   UNL     1      20.806  28.672  10.898  0.00  0.00    +0.096 A 
ATOM      8  C   UNL     1      21.120  29.565  11.915  0.00  0.00    +0.162 A 
ATOM      9  C   UNL     1      22.375  29.541  12.521  0.00  0.00    +0.159 A 
ATOM     10  C   UNL     1      23.318  28.591  12.158  0.00  0.00    +0.064 A 
ATOM     11  C   UNL     1      22.999  27.682  11.146  0.00  0.00    +0.068 A 
ENDROOT
BRANCH   4  12
ATOM     12  C   UNL     1      21.838  25.017   8.028  0.00  0.00    +0.017 A 
ATOM     13  C   UNL     1      20.545  25.144   7.498  0.00  0.00    +0.011 A 
ATOM     14  C   UNL     1      20.101  24.290   6.485  0.00  0.00    +0.001 A 
ATOM     15  C   UNL     1      20.942  23.293   5.994  0.00  0.00    +0.000 A 
ATOM     16  C   UNL     1      22.225  23.148   6.516  0.00  0.00    +0.001 A 
ATOM     17  C   UNL     1      22.669  24.003   7.529  0.00  0.00    +0.011 A 
ENDBRANCH   4  12
BRANCH   8  18
ATOM     18  O   UNL     1      20.166  30.448  12.331  0.00  0.00    -0.503 OA
ATOM     19  H   UNL     1      20.521  31.340  12.154  0.00  0.00    +0.292 HD
ENDBRANCH   8  18
BRANCH   9  20
ATOM     20  O   UNL     1      22.702  30.470  13.466  0.00  0.00    -0.503 OA
ATOM     21  H   UNL     1      22.206  31.278  13.241  0.00  0.00    +0.292 HD
ENDBRANCH   9  20
TORSDOF 3
ENDMDL
MODEL 2
REMARK VINA RESULT:    -5.356     14.496     17.653
REMARK INTER + INTRA:          -6.276
REMARK INTER:                  -6.015
REMARK INTRA:                  -0.261
REMARK UNBOUND:                -0.294
REMARK  Name = 
REMARK  3 active torsions:
REMARK  status: ('A' for Active; 'I' for Inactive)
REMARK    1  A    between atoms: C_4  and  C_5
REMARK    2  A    between atoms: C_14  and  O_15
REMARK    3  A    between atoms: C_16  and  O_17
REMARK                            x       y       z     vdW  Elec       q    Type
REMARK                         _______ _______ _______ _____ _____    ______ ____
ROOT
ATOM      1  O   UNL     1      22.319  40.330  22.004  0.00  0.00    -0.287 OA
ATOM      2  C   UNL     1      21.783  40.770  20.997  0.00  0.00    +0.193 A 
ATOM      3  C   UNL     1      20.907  39.922  20.172  0.00  0.00    +0.098 A 
ATOM      4  C   UNL     1      20.346  40.434  19.068  0.00  0.00    +0.139 A 
ATOM      5  O   UNL     1      20.516  41.742  18.640  0.00  0.00    -0.454 OA
ATOM      6  C   UNL     1      21.326  42.570  19.377  0.00  0.00    +0.143 A 
ATOM      7  C   UNL     1      21.479  43.880  18.919  0.00  0.00    +0.096 A 
ATOM      8  C   UNL     1      22.280  44.755  19.640  0.00  0.00    +0.162 A 
ATOM      9  C   UNL     1      22.952  44.328  20.784  0.00  0.00    +0.159 A 
ATOM     10  C   UNL     1      22.792  43.034  21.257  0.00  0.00    +0.064 A 
ATOM     11  C   UNL     1      21.973  42.155  20.542  0.00  0.00    +0.068 A 
ENDROOT
BRANCH   4  12
ATOM     12  C   UNL     1      19.454  39.630  18.209  0.00  0.00    +0.017 A 
ATOM     13  C   UNL     1      19.875  38.418  17.643  0.00  0.00    +0.011 A 
ATOM     14  C   UNL     1      19.020  37.676  16.825  0.00  0.00    +0.001 A 
ATOM     15  C   UNL     1      17.734  38.139  16.557  0.00  0.00    +0.000 A 
ATOM     16  C   UNL     1      17.303  39.345  17.104  0.00  0.00    +0.001 A 
ATOM     17  C   UNL     1      18.159  40.088  17.923  0.00  0.00    +0.011 A 
ENDBRANCH   4  12
BRANCH   8  18
ATOM     18  O   UNL     1      22.377  46.051  19.224  0.00  0.00    -0.503 OA
ATOM     19  H   UNL     1      21.476  46.422  19.265  0.00  0.00    +0.292 HD
ENDBRANCH   8  18
BRANCH   9  20
ATOM     20  O   UNL     1      23.797  45.173  21.443  0.00  0.00    -0.503 OA
ATOM     21  H   UNL     1      23.241  45.718  22.029  0.00  0.00    +0.292 HD
ENDBRANCH   9  20
TORSDOF 3
ENDMDL
MODEL 3
REMARK VINA RESULT:    -5.047     12.712     14.119
REMARK INTER + INTRA:          -5.931
REMARK INTER:                  -5.637
REMARK INTRA:                  -0.294
REMARK UNBOUND:                -0.294
REMARK  Name = 
REMARK  3 active torsions:
REMARK  status: ('A' for Active; 'I' for Inactive)
REMARK    1  A    between atoms: C_4  and  C_5
REMARK    2  A    between atoms: C_14  and  O_15
REMARK    3  A    between atoms: C_16  and  O_17
REMARK                            x       y       z     vdW  Elec       q    Type
REMARK                         _______ _______ _______ _____ _____    ______ ____
ROOT
ATOM      1  O   UNL     1      27.047  36.978  20.813  0.00  0.00    -0.287 OA
ATOM      2  C   UNL     1      26.916  36.926  19.598  0.00  0.00    +0.193 A 
ATOM      3  C   UNL     1      28.086  36.990  18.707  0.00  0.00    +0.098 A 
ATOM      4  C   UNL     1      27.905  36.944  17.379  0.00  0.00    +0.139 A 
ATOM      5  O   UNL     1      26.668  36.818  16.765  0.00  0.00    -0.454 OA
ATOM      6  C   UNL     1      25.548  36.757  17.556  0.00  0.00    +0.143 A 
ATOM      7  C   UNL     1      24.319  36.633  16.907  0.00  0.00    +0.096 A 
ATOM      8  C   UNL     1      23.160  36.556  17.669  0.00  0.00    +0.162 A 
ATOM      9  C   UNL     1      23.216  36.636  19.060  0.00  0.00    +0.159 A 
ATOM     10  C   UNL     1      24.434  36.741  19.715  0.00  0.00    +0.064 A 
ATOM     11  C   UNL     1      25.603  36.803  18.950  0.00  0.00    +0.068 A 
ENDROOT
BRANCH   4  12
ATOM     12  C   UNL     1      29.042  36.995  16.440  0.00  0.00    +0.017 A 
ATOM     13  C   UNL     1      28.847  37.008  15.050  0.00  0.00    +0.011 A 
ATOM     14  C   UNL     1      29.936  37.047  14.177  0.00  0.00    +0.001 A 
ATOM     15  C   UNL     1      31.235  37.068  14.680  0.00  0.00    +0.000 A 
ATOM     16  C   UNL     1      31.446  37.046  16.056  0.00  0.00    +0.001 A 
ATOM     17  C   UNL     1      30.356  37.007  16.931  0.00  0.00    +0.011 A 
ENDBRANCH   4  12
BRANCH   8  18
ATOM     18  O   UNL     1      21.966  36.373  17.034  0.00  0.00    -0.503 OA
ATOM     19  H   UNL     1      21.899  37.079  16.365  0.00  0.00    +0.292 HD
ENDBRANCH   8  18
BRANCH   9  20
ATOM     20  O   UNL     1      22.067  36.637  19.797  0.00  0.00    -0.503 OA
ATOM     21  H   UNL     1      21.880  37.569  20.015  0.00  0.00    +0.292 HD
ENDBRANCH   9  20
TORSDOF 3
ENDMDL
MODEL 4
REMARK VINA RESULT:    -4.950     22.901     25.157
REMARK INTER + INTRA:          -5.823
REMARK INTER:                  -5.534
REMARK INTRA:                  -0.288
REMARK UNBOUND:                -0.294
REMARK  Name = 
REMARK  3 active torsions:
REMARK  status: ('A' for Active; 'I' for Inactive)
REMARK    1  A    between atoms: C_4  and  C_5
REMARK    2  A    between atoms: C_14  and  O_15
REMARK    3  A    between atoms: C_16  and  O_17
REMARK                            x       y       z     vdW  Elec       q    Type
REMARK                         _______ _______ _______ _____ _____    ______ ____
ROOT
ATOM      1  O   UNL     1      12.540  49.926  22.199  0.00  0.00    -0.287 OA
ATOM      2  C   UNL     1      13.191  48.931  21.913  0.00  0.00    +0.193 A 
ATOM      3  C   UNL     1      12.769  47.595  22.364  0.00  0.00    +0.098 A 
ATOM      4  C   UNL     1      13.514  46.527  22.043  0.00  0.00    +0.139 A 
ATOM      5  O   UNL     1      14.673  46.584  21.283  0.00  0.00    -0.454 OA
ATOM      6  C   UNL     1      15.106  47.809  20.842  0.00  0.00    +0.143 A 
ATOM      7  C   UNL     1      16.276  47.833  20.082  0.00  0.00    +0.096 A 
ATOM      8  C   UNL     1      16.745  49.050  19.606  0.00  0.00    +0.162 A 
ATOM      9  C   UNL     1      16.080  50.237  19.908  0.00  0.00    +0.159 A 
ATOM     10  C   UNL     1      14.906  50.222  20.648  0.00  0.00    +0.064 A 
ATOM     11  C   UNL     1      14.424  48.996  21.115  0.00  0.00    +0.068 A 
ENDROOT
BRANCH   4  12
ATOM     12  C   UNL     1      13.134  45.164  22.461  0.00  0.00    +0.017 A 
ATOM     13  C   UNL     1      14.071  44.121  22.506  0.00  0.00    +0.011 A 
ATOM     14  C   UNL     1      13.691  42.834  22.895  0.00  0.00    +0.001 A 
ATOM     15  C   UNL     1      12.366  42.572  23.240  0.00  0.00    +0.000 A 
ATOM     16  C   UNL     1      11.422  43.594  23.192  0.00  0.00    +0.001 A 
ATOM     17  C   UNL     1      11.802  44.881  22.803  0.00  0.00    +0.011 A 
ENDBRANCH   4  12
BRANCH   8  18
ATOM     18  O   UNL     1      17.854  49.061  18.811  0.00  0.00    -0.503 OA
ATOM     19  H   UNL     1      17.545  48.889  17.903  0.00  0.00    +0.292 HD
ENDBRANCH   8  18
BRANCH   9  20
ATOM     20  O   UNL     1      16.589  51.436  19.501  0.00  0.00    -0.503 OA
ATOM     21  H   UNL     1      17.391  51.234  18.985  0.00  0.00    +0.292 HD
ENDBRANCH   9  20
TORSDOF 3
ENDMDL
MODEL 5
REMARK VINA RESULT:    -4.657      1.596      2.516
REMARK INTER + INTRA:          -5.496
REMARK INTER:                  -5.200
REMARK INTRA:                  -0.295
REMARK UNBOUND:                -0.294
REMARK  Name = 
REMARK  3 active torsions:
REMARK  status: ('A' for Active; 'I' for Inactive)
REMARK    1  A    between atoms: C_4  and  C_5
REMARK    2  A    between atoms: C_14  and  O_15
REMARK    3  A    between atoms: C_16  and  O_17
REMARK                            x       y       z     vdW  Elec       q    Type
REMARK                         _______ _______ _______ _____ _____    ______ ____
ROOT
ATOM      1  O   UNL     1      26.861  26.352  12.217  0.00  0.00    -0.287 OA
ATOM      2  C   UNL     1      25.721  26.604  11.851  0.00  0.00    +0.193 A 
ATOM      3  C   UNL     1      25.103  25.868  10.736  0.00  0.00    +0.098 A 
ATOM      4  C   UNL     1      23.857  26.180  10.353  0.00  0.00    +0.139 A 
ATOM      5  O   UNL     1      23.077  27.156  10.954  0.00  0.00    -0.454 OA
ATOM      6  C   UNL     1      23.612  27.870  11.996  0.00  0.00    +0.143 A 
ATOM      7  C   UNL     1      22.803  28.847  12.578  0.00  0.00    +0.096 A 
ATOM      8  C   UNL     1      23.300  29.587  13.643  0.00  0.00    +0.162 A 
ATOM      9  C   UNL     1      24.599  29.384  14.106  0.00  0.00    +0.159 A 
ATOM     10  C   UNL     1      25.405  28.403  13.547  0.00  0.00    +0.064 A 
ATOM     11  C   UNL     1      24.901  27.647  12.485  0.00  0.00    +0.068 A 
ENDROOT
BRANCH   4  12
ATOM     12  C   UNL     1      23.186  25.468   9.247  0.00  0.00    +0.017 A 
ATOM     13  C   UNL     1      23.843  24.471   8.510  0.00  0.00    +0.011 A 
ATOM     14  C   UNL     1      23.195  23.815   7.460  0.00  0.00    +0.001 A 
ATOM     15  C   UNL     1      21.884  24.152   7.130  0.00  0.00    +0.000 A 
ATOM     16  C   UNL     1      21.222  25.145   7.845  0.00  0.00    +0.001 A 
ATOM     17  C   UNL     1      21.870  25.802   8.896  0.00  0.00    +0.011 A 
ENDBRANCH   4  12
BRANCH   8  18
ATOM     18  O   UNL     1      22.484  30.497  14.249  0.00  0.00    -0.503 OA
ATOM     19  H   UNL     1      21.579  30.138  14.192  0.00  0.00    +0.292 HD
ENDBRANCH   8  18
BRANCH   9  20
ATOM     20  O   UNL     1      25.106  30.166  15.102  0.00  0.00    -0.503 OA
ATOM     21  H   UNL     1      25.452  30.970  14.673  0.00  0.00    +0.292 HD
ENDBRANCH   9  20
TORSDOF 3
ENDMDL
MODEL 6
REMARK VINA RESULT:    -4.535     15.091     18.665
REMARK INTER + INTRA:          -5.359
REMARK INTER:                  -5.101
REMARK INTRA:                  -0.258
REMARK UNBOUND:                -0.294
REMARK  Name = 
REMARK  3 active torsions:
REMARK  status: ('A' for Active; 'I' for Inactive)
REMARK    1  A    between atoms: C_4  and  C_5
REMARK    2  A    between atoms: C_14  and  O_15
REMARK    3  A    between atoms: C_16  and  O_17
REMARK                            x       y       z     vdW  Elec       q    Type
REMARK                         _______ _______ _______ _____ _____    ______ ____
ROOT
ATOM      1  O   UNL     1      37.138  35.497  16.356  0.00  0.00    -0.287 OA
ATOM      2  C   UNL     1      36.162  36.231  16.276  0.00  0.00    +0.193 A 
ATOM      3  C   UNL     1      35.987  37.362  17.202  0.00  0.00    +0.098 A 
ATOM      4  C   UNL     1      34.899  38.139  17.093  0.00  0.00    +0.139 A 
ATOM      5  O   UNL     1      33.909  37.965  16.138  0.00  0.00    -0.454 OA
ATOM      6  C   UNL     1      34.029  36.922  15.255  0.00  0.00    +0.143 A 
ATOM      7  C   UNL     1      33.014  36.772  14.308  0.00  0.00    +0.096 A 
ATOM      8  C   UNL     1      33.101  35.736  13.386  0.00  0.00    +0.162 A 
ATOM      9  C   UNL     1      34.164  34.836  13.425  0.00  0.00    +0.159 A 
ATOM     10  C   UNL     1      35.187  34.987  14.350  0.00  0.00    +0.064 A 
ATOM     11  C   UNL     1      35.110  36.038  15.268  0.00  0.00    +0.068 A 
ENDROOT
BRANCH   4  12
ATOM     12  C   UNL     1      34.677  39.290  17.989  0.00  0.00    +0.017 A 
ATOM     13  C   UNL     1      34.583  39.131  19.380  0.00  0.00    +0.011 A 
ATOM     14  C   UNL     1      34.363  40.232  20.212  0.00  0.00    +0.001 A 
ATOM     15  C   UNL     1      34.229  41.505  19.663  0.00  0.00    +0.000 A 
ATOM     16  C   UNL     1      34.310  41.679  18.284  0.00  0.00    +0.001 A 
ATOM     17  C   UNL     1      34.530  40.578  17.452  0.00  0.00    +0.011 A 
ENDBRANCH   4  12
BRANCH   8  18
ATOM     18  O   UNL     1      32.139  35.632  12.424  0.00  0.00    -0.503 OA
ATOM     19  H   UNL     1      32.602  35.674  11.566  0.00  0.00    +0.292 HD
ENDBRANCH   8  18
BRANCH   9  20
ATOM     20  O   UNL     1      34.202  33.777  12.565  0.00  0.00    -0.503 OA
ATOM     21  H   UNL     1      34.267  32.976  13.118  0.00  0.00    +0.292 HD
ENDBRANCH   9  20
TORSDOF 3
ENDMDL
MODEL 7
REMARK VINA RESULT:    -4.311      4.421      6.033
REMARK INTER + INTRA:          -5.110
REMARK INTER:                  -4.816
REMARK INTRA:                  -0.293
REMARK UNBOUND:                -0.294
REMARK  Name = 
REMARK  3 active torsions:
REMARK  status: ('A' for Active; 'I' for Inactive)
REMARK    1  A    between atoms: C_4  and  C_5
REMARK    2  A    between atoms: C_14  and  O_15
REMARK    3  A    between atoms: C_16  and  O_17
REMARK                            x       y       z     vdW  Elec       q    Type
REMARK                         _______ _______ _______ _____ _____    ______ ____
ROOT
ATOM      1  O   UNL     1      29.445  25.732  14.563  0.00  0.00    -0.287 OA
ATOM      2  C   UNL     1      28.474  26.329  14.120  0.00  0.00    +0.193 A 
ATOM      3  C   UNL     1      27.679  25.769  13.015  0.00  0.00    +0.098 A 
ATOM      4  C   UNL     1      26.628  26.457  12.545  0.00  0.00    +0.139 A 
ATOM      5  O   UNL     1      26.210  27.680  13.046  0.00  0.00    -0.454 OA
ATOM      6  C   UNL     1      26.922  28.243  14.076  0.00  0.00    +0.143 A 
ATOM      7  C   UNL     1      26.478  29.476  14.555  0.00  0.00    +0.096 A 
ATOM      8  C   UNL     1      27.162  30.077  15.604  0.00  0.00    +0.162 A 
ATOM      9  C   UNL     1      28.297  29.478  16.150  0.00  0.00    +0.159 A 
ATOM     10  C   UNL     1      28.736  28.245  15.692  0.00  0.00    +0.064 A 
ATOM     11  C   UNL     1      28.039  27.631  14.647  0.00  0.00    +0.068 A 
ENDROOT
BRANCH   4  12
ATOM     12  C   UNL     1      25.792  25.938  11.445  0.00  0.00    +0.017 A 
ATOM     13  C   UNL     1      24.600  26.574  11.066  0.00  0.00    +0.011 A 
ATOM     14  C   UNL     1      23.816  26.063  10.029  0.00  0.00    +0.001 A 
ATOM     15  C   UNL     1      24.211  24.906   9.360  0.00  0.00    +0.000 A 
ATOM     16  C   UNL     1      25.387  24.258   9.730  0.00  0.00    +0.001 A 
ATOM     17  C   UNL     1      26.171  24.769  10.768  0.00  0.00    +0.011 A 
ENDBRANCH   4  12
BRANCH   8  18
ATOM     18  O   UNL     1      26.687  31.251  16.111  0.00  0.00    -0.503 OA
ATOM     19  H   UNL     1      27.440  31.686  16.553  0.00  0.00    +0.292 HD
ENDBRANCH   8  18
BRANCH   9  20
ATOM     20  O   UNL     1      29.007  30.111  17.128  0.00  0.00    -0.503 OA
ATOM     21  H   UNL     1      29.856  29.637  17.203  0.00  0.00    +0.292 HD
ENDBRANCH   9  20
TORSDOF 3
ENDMDL
MODEL 8
REMARK VINA RESULT:    -4.239     23.551     25.564
REMARK INTER + INTRA:          -5.028
REMARK INTER:                  -4.734
REMARK INTRA:                  -0.294
REMARK UNBOUND:                -0.294
REMARK  Name = 
REMARK  3 active torsions:
REMARK  status: ('A' for Active; 'I' for Inactive)
REMARK    1  A    between atoms: C_4  and  C_5
REMARK    2  A    between atoms: C_14  and  O_15
REMARK    3  A    between atoms: C_16  and  O_17
REMARK                            x       y       z     vdW  Elec       q    Type
REMARK                         _______ _______ _______ _____ _____    ______ ____
ROOT
ATOM      1  O   UNL     1      13.090  50.375  20.115  0.00  0.00    -0.287 OA
ATOM      2  C   UNL     1      13.288  49.256  20.568  0.00  0.00    +0.193 A 
ATOM      3  C   UNL     1      12.222  48.523  21.270  0.00  0.00    +0.098 A 
ATOM      4  C   UNL     1      12.477  47.304  21.765  0.00  0.00    +0.139 A 
ATOM      5  O   UNL     1      13.697  46.654  21.647  0.00  0.00    -0.454 OA
ATOM      6  C   UNL     1      14.722  47.300  21.002  0.00  0.00    +0.143 A 
ATOM      7  C   UNL     1      15.937  46.620  20.902  0.00  0.00    +0.096 A 
ATOM      8  C   UNL     1      16.998  47.232  20.247  0.00  0.00    +0.162 A 
ATOM      9  C   UNL     1      16.867  48.518  19.726  0.00  0.00    +0.159 A 
ATOM     10  C   UNL     1      15.659  49.194  19.804  0.00  0.00    +0.064 A 
ATOM     11  C   UNL     1      14.584  48.574  20.449  0.00  0.00    +0.068 A 
ENDROOT
BRANCH   4  12
ATOM     12  C   UNL     1      11.444  46.522  22.470  0.00  0.00    +0.017 A 
ATOM     13  C   UNL     1      11.707  45.237  22.970  0.00  0.00    +0.011 A 
ATOM     14  C   UNL     1      10.713  44.508  23.626  0.00  0.00    +0.001 A 
ATOM     15  C   UNL     1       9.440  45.051  23.787  0.00  0.00    +0.000 A 
ATOM     16  C   UNL     1       9.159  46.320  23.289  0.00  0.00    +0.001 A 
ATOM     17  C   UNL     1      10.154  47.050  22.632  0.00  0.00    +0.011 A 
ENDBRANCH   4  12
BRANCH   8  18
ATOM     18  O   UNL     1      18.164  46.539  20.097  0.00  0.00    -0.503 OA
ATOM     19  H   UNL     1      18.755  46.834  20.815  0.00  0.00    +0.292 HD
ENDBRANCH   8  18
BRANCH   9  20
ATOM     20  O   UNL     1      17.937  49.141  19.152  0.00  0.00    -0.503 OA
ATOM     21  H   UNL     1      17.718  49.252  18.208  0.00  0.00    +0.292 HD
ENDBRANCH   9  20
TORSDOF 3
ENDMDL
MODEL 9
REMARK VINA RESULT:    -4.191     23.014     26.168
REMARK INTER + INTRA:          -4.975
REMARK INTER:                  -4.683
REMARK INTRA:                  -0.292
REMARK UNBOUND:                -0.294
REMARK  Name = 
REMARK  3 active torsions:
REMARK  status: ('A' for Active; 'I' for Inactive)
REMARK    1  A    between atoms: C_4  and  C_5
REMARK    2  A    between atoms: C_14  and  O_15
REMARK    3  A    between atoms: C_16  and  O_17
REMARK                            x       y       z     vdW  Elec       q    Type
REMARK                         _______ _______ _______ _____ _____    ______ ____
ROOT
ATOM      1  O   UNL     1       1.653  46.505  14.540  0.00  0.00    -0.287 OA
ATOM      2  C   UNL     1       2.830  46.186  14.635  0.00  0.00    +0.193 A 
ATOM      3  C   UNL     1       3.316  44.909  14.088  0.00  0.00    +0.098 A 
ATOM      4  C   UNL     1       4.611  44.586  14.221  0.00  0.00    +0.139 A 
ATOM      5  O   UNL     1       5.556  45.393  14.835  0.00  0.00    -0.454 OA
ATOM      6  C   UNL     1       5.149  46.593  15.363  0.00  0.00    +0.143 A 
ATOM      7  C   UNL     1       6.124  47.380  15.977  0.00  0.00    +0.096 A 
ATOM      8  C   UNL     1       5.758  48.607  16.514  0.00  0.00    +0.162 A 
ATOM      9  C   UNL     1       4.432  49.035  16.475  0.00  0.00    +0.159 A 
ATOM     10  C   UNL     1       3.459  48.268  15.851  0.00  0.00    +0.064 A 
ATOM     11  C   UNL     1       3.828  47.040  15.296  0.00  0.00    +0.068 A 
ENDROOT
BRANCH   4  12
ATOM     12  C   UNL     1       5.153  43.324  13.684  0.00  0.00    +0.017 A 
ATOM     13  C   UNL     1       4.313  42.265  13.306  0.00  0.00    +0.011 A 
ATOM     14  C   UNL     1       4.845  41.073  12.809  0.00  0.00    +0.001 A 
ATOM     15  C   UNL     1       6.224  40.921  12.688  0.00  0.00    +0.000 A 
ATOM     16  C   UNL     1       7.072  41.958  13.066  0.00  0.00    +0.001 A 
ATOM     17  C   UNL     1       6.540  43.151  13.564  0.00  0.00    +0.011 A 
ENDBRANCH   4  12
BRANCH   8  18
ATOM     18  O   UNL     1       6.726  49.402  17.058  0.00  0.00    -0.503 OA
ATOM     19  H   UNL     1       7.559  49.170  16.606  0.00  0.00    +0.292 HD
ENDBRANCH   8  18
BRANCH   9  20
ATOM     20  O   UNL     1       4.068  50.206  17.073  0.00  0.00    -0.503 OA
ATOM     21  H   UNL     1       4.835  50.499  17.597  0.00  0.00    +0.292 HD
ENDBRANCH   9  20
TORSDOF 3
ENDMDL
