MODEL 1
REMARK VINA RESULT:    -4.367      0.000      0.000
REMARK INTER + INTRA:          -5.458
REMARK INTER:                  -5.133
REMARK INTRA:                  -0.325
REMARK UNBOUND:                -0.325
REMARK  Name = 
REMARK  5 active torsions:
REMARK  status: ('A' for Active; 'I' for Inactive)
REMARK    1  A    between atoms: C_1  and  C_2
REMARK    2  A    between atoms: C_5  and  O_6
REMARK    3  A    between atoms: O_6  and  C_7
REMARK    4  A    between atoms: C_8  and  C_9
REMARK    5  A    between atoms: C_9  and  N_10
REMARK                            x       y       z     vdW  Elec       q    Type
REMARK                         _______ _______ _______ _____ _____    ______ ____
ROOT
ATOM      1  C   UNL     1      36.272  28.640   0.257  0.00  0.00    +0.044 C 
ATOM      2  C   UNL     1      36.168  27.528   1.259  0.00  0.00    -0.050 A 
ATOM      3  C   UNL     1      35.026  26.725   1.312  0.00  0.00    +0.007 A 
ATOM      4  C   UNL     1      34.916  25.709   2.266  0.00  0.00    +0.046 A 
ATOM      5  C   UNL     1      35.938  25.490   3.195  0.00  0.00    +0.124 A 
ATOM      6  C   UNL     1      37.089  26.297   3.161  0.00  0.00    +0.008 A 
ATOM      7  C   UNL     1      37.188  27.314   2.192  0.00  0.00    +0.012 A 
ENDROOT
BRANCH   5   8
ATOM      8  O   UNL     1      35.917  24.500   4.144  0.00  0.00    -0.495 OA
ATOM      9  C   UNL     1      35.001  23.432   3.942  0.00  0.00    +0.277 C 
ENDBRANCH   5   8
BRANCH   6  10
ATOM     10  C   UNL     1      38.219  26.111   4.157  0.00  0.00    +0.123 C 
BRANCH  10  11
ATOM     11  N   UNL     1      39.259  25.172   3.707  0.00  0.00    -0.296 NA
ATOM     12  C   UNL     1      39.681  24.236   4.768  0.00  0.00    +0.100 C 
ATOM     13  C   UNL     1      41.005  23.492   4.452  0.00  0.00    +0.096 C 
ATOM     14  N   UNL     1      41.353  23.526   3.021  0.00  0.00    -0.314 NA
ATOM     15  C   UNL     1      41.506  24.937   2.610  0.00  0.00    +0.096 C 
ATOM     16  C   UNL     1      40.428  25.895   3.178  0.00  0.00    +0.100 C 
ATOM     17  H   UNL     1      40.518  23.189   2.531  0.00  0.00    +0.122 HD
ENDBRANCH  10  11
ENDBRANCH   6  10
TORSDOF 3
ENDMDL
MODEL 2
REMARK VINA RESULT:    -4.089     14.524     17.151
REMARK INTER + INTRA:          -5.131
REMARK INTER:                  -4.778
REMARK INTRA:                  -0.353
REMARK UNBOUND:                -0.325
REMARK  Name = 
REMARK  5 active torsions:
REMARK  status: ('A' for Active; 'I' for Inactive)
REMARK    1  A    between atoms: C_1  and  C_2
REMARK    2  A    between atoms: C_5  and  O_6
REMARK    3  A    between atoms: O_6  and  C_7
REMARK    4  A    between atoms: C_8  and  C_9
REMARK    5  A    between atoms: C_9  and  N_10
REMARK                            x       y       z     vdW  Elec       q    Type
REMARK                         _______ _______ _______ _____ _____    ______ ____
ROOT
ATOM      1  C   UNL     1      19.423  18.953   8.283  0.00  0.00    +0.044 C 
ATOM      2  C   UNL     1      19.749  20.372   7.921  0.00  0.00    -0.050 A 
ATOM      3  C   UNL     1      19.121  20.991   6.838  0.00  0.00    +0.007 A 
ATOM      4  C   UNL     1      19.447  22.303   6.483  0.00  0.00    +0.046 A 
ATOM      5  C   UNL     1      20.420  23.013   7.193  0.00  0.00    +0.124 A 
ATOM      6  C   UNL     1      21.069  22.400   8.280  0.00  0.00    +0.008 A 
ATOM      7  C   UNL     1      20.727  21.079   8.628  0.00  0.00    +0.012 A 
ENDROOT
BRANCH   5   8
ATOM      8  O   UNL     1      20.778  24.309   6.924  0.00  0.00    -0.495 OA
ATOM      9  C   UNL     1      19.790  25.309   7.136  0.00  0.00    +0.277 C 
ENDBRANCH   5   8
BRANCH   6  10
ATOM     10  C   UNL     1      22.144  23.121   9.073  0.00  0.00    +0.123 C 
BRANCH  10  11
ATOM     11  N   UNL     1      23.512  22.839   8.610  0.00  0.00    -0.296 NA
ATOM     12  C   UNL     1      24.242  21.927   9.514  0.00  0.00    +0.100 C 
ATOM     13  C   UNL     1      25.773  21.899   9.264  0.00  0.00    +0.096 C 
ATOM     14  N   UNL     1      26.148  22.428   7.942  0.00  0.00    -0.314 NA
ATOM     15  C   UNL     1      25.692  23.831   7.853  0.00  0.00    +0.096 C 
ATOM     16  C   UNL     1      24.274  24.086   8.427  0.00  0.00    +0.100 C 
ATOM     17  H   UNL     1      25.572  21.912   7.270  0.00  0.00    +0.122 HD
ENDBRANCH  10  11
ENDBRANCH   6  10
TORSDOF 3
ENDMDL
MODEL 3
REMARK VINA RESULT:    -3.844     28.197     29.584
REMARK INTER + INTRA:          -4.843
REMARK INTER:                  -4.631
REMARK INTRA:                  -0.212
REMARK UNBOUND:                -0.325
REMARK  Name = 
REMARK  5 active torsions:
REMARK  status: ('A' for Active; 'I' for Inactive)
REMARK    1  A    between atoms: C_1  and  C_2
REMARK    2  A    between atoms: C_5  and  O_6
REMARK    3  A    between atoms: O_6  and  C_7
REMARK    4  A    between atoms: C_8  and  C_9
REMARK    5  A    between atoms: C_9  and  N_10
REMARK                            x       y       z     vdW  Elec       q    Type
REMARK                         _______ _______ _______ _____ _____    ______ ____
ROOT
ATOM      1  C   UNL     1      13.050  38.750  19.533  0.00  0.00    +0.044 C 
ATOM      2  C   UNL     1      14.248  38.827  18.634  0.00  0.00    -0.050 A 
ATOM      3  C   UNL     1      14.116  38.631  17.257  0.00  0.00    +0.007 A 
ATOM      4  C   UNL     1      15.238  38.673  16.424  0.00  0.00    +0.046 A 
ATOM      5  C   UNL     1      16.513  38.894  16.954  0.00  0.00    +0.124 A 
ATOM      6  C   UNL     1      16.662  39.084  18.339  0.00  0.00    +0.008 A 
ATOM      7  C   UNL     1      15.524  39.042  19.166  0.00  0.00    +0.012 A 
ENDROOT
BRANCH   5   8
ATOM      8  O   UNL     1      17.656  38.975  16.202  0.00  0.00    -0.495 OA
ATOM      9  C   UNL     1      18.111  37.776  15.588  0.00  0.00    +0.277 C 
ENDBRANCH   5   8
BRANCH   6  10
ATOM     10  C   UNL     1      18.026  39.311  18.967  0.00  0.00    +0.123 C 
BRANCH  10  11
ATOM     11  N   UNL     1      18.607  40.629  18.663  0.00  0.00    -0.296 NA
ATOM     12  C   UNL     1      20.084  40.618  18.676  0.00  0.00    +0.100 C 
ATOM     13  C   UNL     1      20.716  42.033  18.725  0.00  0.00    +0.096 C 
ATOM     14  N   UNL     1      19.777  43.094  18.323  0.00  0.00    -0.314 NA
ATOM     15  C   UNL     1      18.622  43.072  19.245  0.00  0.00    +0.096 C 
ATOM     16  C   UNL     1      18.101  41.654  19.592  0.00  0.00    +0.100 C 
ATOM     17  H   UNL     1      19.405  42.798  17.415  0.00  0.00    +0.122 HD
ENDBRANCH  10  11
ENDBRANCH   6  10
TORSDOF 3
ENDMDL
MODEL 4
REMARK VINA RESULT:    -3.649     28.250     29.765
REMARK INTER + INTRA:          -4.615
REMARK INTER:                  -4.340
REMARK INTRA:                  -0.275
REMARK UNBOUND:                -0.325
REMARK  Name = 
REMARK  5 active torsions:
REMARK  status: ('A' for Active; 'I' for Inactive)
REMARK    1  A    between atoms: C_1  and  C_2
REMARK    2  A    between atoms: C_5  and  O_6
REMARK    3  A    between atoms: O_6  and  C_7
REMARK    4  A    between atoms: C_8  and  C_9
REMARK    5  A    between atoms: C_9  and  N_10
REMARK                            x       y       z     vdW  Elec       q    Type
REMARK                         _______ _______ _______ _____ _____    ______ ____
ROOT
ATOM      1  C   UNL     1      13.320  38.854  20.462  0.00  0.00    +0.044 C 
ATOM      2  C   UNL     1      13.103  38.535  19.012  0.00  0.00    -0.050 A 
ATOM      3  C   UNL     1      11.858  38.091  18.562  0.00  0.00    +0.007 A 
ATOM      4  C   UNL     1      11.665  37.764  17.216  0.00  0.00    +0.046 A 
ATOM      5  C   UNL     1      12.718  37.860  16.301  0.00  0.00    +0.124 A 
ATOM      6  C   UNL     1      13.981  38.296  16.742  0.00  0.00    +0.008 A 
ATOM      7  C   UNL     1      14.159  38.624  18.099  0.00  0.00    +0.012 A 
ENDROOT
BRANCH   5   8
ATOM      8  O   UNL     1      12.603  37.583  14.963  0.00  0.00    -0.495 OA
ATOM      9  C   UNL     1      11.288  37.513  14.429  0.00  0.00    +0.277 C 
ENDBRANCH   5   8
BRANCH   6  10
ATOM     10  C   UNL     1      15.160  38.400  15.793  0.00  0.00    +0.123 C 
BRANCH  10  11
ATOM     11  N   UNL     1      16.436  37.959  16.381  0.00  0.00    -0.296 NA
ATOM     12  C   UNL     1      17.409  39.061  16.524  0.00  0.00    +0.100 C 
ATOM     13  C   UNL     1      18.859  38.580  16.789  0.00  0.00    +0.096 C 
ATOM     14  N   UNL     1      18.922  37.188  17.267  0.00  0.00    -0.314 NA
ATOM     15  C   UNL     1      18.326  36.312  16.237  0.00  0.00    +0.096 C 
ATOM     16  C   UNL     1      17.027  36.863  15.595  0.00  0.00    +0.100 C 
ATOM     17  H   UNL     1      18.280  37.146  18.065  0.00  0.00    +0.122 HD
ENDBRANCH  10  11
ENDBRANCH   6  10
TORSDOF 3
ENDMDL
MODEL 5
REMARK VINA RESULT:    -3.442     22.730     24.080
REMARK INTER + INTRA:          -4.370
REMARK INTER:                  -4.033
REMARK INTRA:                  -0.337
REMARK UNBOUND:                -0.325
REMARK  Name = 
REMARK  5 active torsions:
REMARK  status: ('A' for Active; 'I' for Inactive)
REMARK    1  A    between atoms: C_1  and  C_2
REMARK    2  A    between atoms: C_5  and  O_6
REMARK    3  A    between atoms: O_6  and  C_7
REMARK    4  A    between atoms: C_8  and  C_9
REMARK    5  A    between atoms: C_9  and  N_10
REMARK                            x       y       z     vdW  Elec       q    Type
REMARK                         _______ _______ _______ _____ _____    ______ ____
ROOT
ATOM      1  C   UNL     1      41.628  44.418   9.914  0.00  0.00    +0.044 C 
ATOM      2  C   UNL     1      41.189  45.055  11.200  0.00  0.00    -0.050 A 
ATOM      3  C   UNL     1      42.090  45.218  12.255  0.00  0.00    +0.007 A 
ATOM      4  C   UNL     1      41.673  45.783  13.464  0.00  0.00    +0.046 A 
ATOM      5  C   UNL     1      40.344  46.179  13.645  0.00  0.00    +0.124 A 
ATOM      6  C   UNL     1      39.423  46.012  12.595  0.00  0.00    +0.008 A 
ATOM      7  C   UNL     1      39.858  45.444  11.382  0.00  0.00    +0.012 A 
ENDROOT
BRANCH   5   8
ATOM      8  O   UNL     1      39.863  46.763  14.788  0.00  0.00    -0.495 OA
ATOM      9  C   UNL     1      39.923  45.992  15.981  0.00  0.00    +0.277 C 
ENDBRANCH   5   8
BRANCH   6  10
ATOM     10  C   UNL     1      37.966  46.409  12.746  0.00  0.00    +0.123 C 
BRANCH  10  11
ATOM     11  N   UNL     1      37.710  47.836  12.494  0.00  0.00    -0.296 NA
ATOM     12  C   UNL     1      36.893  48.465  13.551  0.00  0.00    +0.100 C 
ATOM     13  C   UNL     1      36.305  49.842  13.146  0.00  0.00    +0.096 C 
ATOM     14  N   UNL     1      37.000  50.446  11.996  0.00  0.00    -0.314 NA
ATOM     15  C   UNL     1      36.874  49.533  10.841  0.00  0.00    +0.096 C 
ATOM     16  C   UNL     1      37.075  48.033  11.180  0.00  0.00    +0.100 C 
ATOM     17  H   UNL     1      37.994  50.436  12.244  0.00  0.00    +0.122 HD
ENDBRANCH  10  11
ENDBRANCH   6  10
TORSDOF 3
ENDMDL
MODEL 6
REMARK VINA RESULT:    -3.279      1.782      2.670
REMARK INTER + INTRA:          -4.179
REMARK INTER:                  -3.810
REMARK INTRA:                  -0.369
REMARK UNBOUND:                -0.325
REMARK  Name = 
REMARK  5 active torsions:
REMARK  status: ('A' for Active; 'I' for Inactive)
REMARK    1  A    between atoms: C_1  and  C_2
REMARK    2  A    between atoms: C_5  and  O_6
REMARK    3  A    between atoms: O_6  and  C_7
REMARK    4  A    between atoms: C_8  and  C_9
REMARK    5  A    between atoms: C_9  and  N_10
REMARK                            x       y       z     vdW  Elec       q    Type
REMARK                         _______ _______ _______ _____ _____    ______ ____
ROOT
ATOM      1  C   UNL     1      35.234  26.754   1.574  0.00  0.00    +0.044 C 
ATOM      2  C   UNL     1      36.215  26.196   2.563  0.00  0.00    -0.050 A 
ATOM      3  C   UNL     1      35.770  25.478   3.675  0.00  0.00    +0.007 A 
ATOM      4  C   UNL     1      36.682  24.985   4.613  0.00  0.00    +0.046 A 
ATOM      5  C   UNL     1      38.053  25.216   4.464  0.00  0.00    +0.124 A 
ATOM      6  C   UNL     1      38.515  25.946   3.354  0.00  0.00    +0.008 A 
ATOM      7  C   UNL     1      37.585  26.434   2.416  0.00  0.00    +0.012 A 
ENDROOT
BRANCH   5   8
ATOM      8  O   UNL     1      39.012  24.745   5.324  0.00  0.00    -0.495 OA
ATOM      9  C   UNL     1      38.629  23.700   6.207  0.00  0.00    +0.277 C 
ENDBRANCH   5   8
BRANCH   6  10
ATOM     10  C   UNL     1      39.991  26.240   3.155  0.00  0.00    +0.123 C 
BRANCH  10  11
ATOM     11  N   UNL     1      40.592  25.519   2.021  0.00  0.00    -0.296 NA
ATOM     12  C   UNL     1      41.042  24.160   2.384  0.00  0.00    +0.100 C 
ATOM     13  C   UNL     1      41.993  23.520   1.338  0.00  0.00    +0.096 C 
ATOM     14  N   UNL     1      41.925  24.179   0.023  0.00  0.00    -0.314 NA
ATOM     15  C   UNL     1      42.309  25.596   0.190  0.00  0.00    +0.096 C 
ATOM     16  C   UNL     1      41.710  26.284   1.444  0.00  0.00    +0.100 C 
ATOM     17  H   UNL     1      40.930  24.195  -0.222  0.00  0.00    +0.122 HD
ENDBRANCH  10  11
ENDBRANCH   6  10
TORSDOF 3
ENDMDL
MODEL 7
REMARK VINA RESULT:    -3.191     29.873     31.157
REMARK INTER + INTRA:          -4.076
REMARK INTER:                  -3.710
REMARK INTRA:                  -0.366
REMARK UNBOUND:                -0.325
REMARK  Name = 
REMARK  5 active torsions:
REMARK  status: ('A' for Active; 'I' for Inactive)
REMARK    1  A    between atoms: C_1  and  C_2
REMARK    2  A    between atoms: C_5  and  O_6
REMARK    3  A    between atoms: O_6  and  C_7
REMARK    4  A    between atoms: C_8  and  C_9
REMARK    5  A    between atoms: C_9  and  N_10
REMARK                            x       y       z     vdW  Elec       q    Type
REMARK                         _______ _______ _______ _____ _____    ______ ____
ROOT
ATOM      1  C   UNL     1      23.489  43.224  21.648  0.00  0.00    +0.044 C 
ATOM      2  C   UNL     1      22.344  42.582  20.921  0.00  0.00    -0.050 A 
ATOM      3  C   UNL     1      22.390  41.229  20.580  0.00  0.00    +0.007 A 
ATOM      4  C   UNL     1      21.336  40.638  19.876  0.00  0.00    +0.046 A 
ATOM      5  C   UNL     1      20.227  41.395  19.485  0.00  0.00    +0.124 A 
ATOM      6  C   UNL     1      20.171  42.762  19.814  0.00  0.00    +0.008 A 
ATOM      7  C   UNL     1      21.238  43.342  20.526  0.00  0.00    +0.012 A 
ENDROOT
BRANCH   5   8
ATOM      8  O   UNL     1      19.144  40.885  18.817  0.00  0.00    -0.495 OA
ATOM      9  C   UNL     1      19.306  39.616  18.198  0.00  0.00    +0.277 C 
ENDBRANCH   5   8
BRANCH   6  10
ATOM     10  C   UNL     1      18.998  43.630  19.399  0.00  0.00    +0.123 C 
BRANCH  10  11
ATOM     11  N   UNL     1      18.195  44.124  20.530  0.00  0.00    -0.296 NA
ATOM     12  C   UNL     1      17.287  43.095  21.076  0.00  0.00    +0.100 C 
ATOM     13  C   UNL     1      16.185  43.669  22.005  0.00  0.00    +0.096 C 
ATOM     14  N   UNL     1      16.501  45.019  22.502  0.00  0.00    -0.314 NA
ATOM     15  C   UNL     1      16.643  45.923  21.342  0.00  0.00    +0.096 C 
ATOM     16  C   UNL     1      17.430  45.323  20.149  0.00  0.00    +0.100 C 
ATOM     17  H   UNL     1      17.439  44.947  22.907  0.00  0.00    +0.122 HD
ENDBRANCH  10  11
ENDBRANCH   6  10
TORSDOF 3
ENDMDL
MODEL 8
REMARK VINA RESULT:    -3.125     14.916     16.472
REMARK INTER + INTRA:          -3.998
REMARK INTER:                  -3.645
REMARK INTRA:                  -0.354
REMARK UNBOUND:                -0.325
REMARK  Name = 
REMARK  5 active torsions:
REMARK  status: ('A' for Active; 'I' for Inactive)
REMARK    1  A    between atoms: C_1  and  C_2
REMARK    2  A    between atoms: C_5  and  O_6
REMARK    3  A    between atoms: O_6  and  C_7
REMARK    4  A    between atoms: C_8  and  C_9
REMARK    5  A    between atoms: C_9  and  N_10
REMARK                            x       y       z     vdW  Elec       q    Type
REMARK                         _______ _______ _______ _____ _____    ______ ____
ROOT
ATOM      1  C   UNL     1      34.053  34.074  19.377  0.00  0.00    +0.044 C 
ATOM      2  C   UNL     1      35.281  34.093  18.515  0.00  0.00    -0.050 A 
ATOM      3  C   UNL     1      36.516  34.471  19.048  0.00  0.00    +0.007 A 
ATOM      4  C   UNL     1      37.654  34.518  18.237  0.00  0.00    +0.046 A 
ATOM      5  C   UNL     1      37.574  34.205  16.877  0.00  0.00    +0.124 A 
ATOM      6  C   UNL     1      36.335  33.833  16.324  0.00  0.00    +0.008 A 
ATOM      7  C   UNL     1      35.198  33.787  17.153  0.00  0.00    +0.012 A 
ENDROOT
BRANCH   5   8
ATOM      8  O   UNL     1      38.647  34.203  16.023  0.00  0.00    -0.495 OA
ATOM      9  C   UNL     1      39.768  33.414  16.396  0.00  0.00    +0.277 C 
ENDBRANCH   5   8
BRANCH   6  10
ATOM     10  C   UNL     1      36.192  33.501  14.850  0.00  0.00    +0.123 C 
BRANCH  10  11
ATOM     11  N   UNL     1      35.321  34.431  14.114  0.00  0.00    -0.296 NA
ATOM     12  C   UNL     1      34.215  33.746  13.415  0.00  0.00    +0.100 C 
ATOM     13  C   UNL     1      33.510  34.628  12.352  0.00  0.00    +0.096 C 
ATOM     14  N   UNL     1      33.771  36.066  12.536  0.00  0.00    -0.314 NA
ATOM     15  C   UNL     1      35.228  36.294  12.431  0.00  0.00    +0.096 C 
ATOM     16  C   UNL     1      36.099  35.238  13.159  0.00  0.00    +0.100 C 
ATOM     17  H   UNL     1      33.535  36.262  13.513  0.00  0.00    +0.122 HD
ENDBRANCH  10  11
ENDBRANCH   6  10
TORSDOF 3
ENDMDL
MODEL 9
REMARK VINA RESULT:    -3.035     35.887     38.773
REMARK INTER + INTRA:          -3.893
REMARK INTER:                  -3.547
REMARK INTRA:                  -0.346
REMARK UNBOUND:                -0.325
REMARK  Name = 
REMARK  5 active torsions:
REMARK  status: ('A' for Active; 'I' for Inactive)
REMARK    1  A    between atoms: C_1  and  C_2
REMARK    2  A    between atoms: C_5  and  O_6
REMARK    3  A    between atoms: O_6  and  C_7
REMARK    4  A    between atoms: C_8  and  C_9
REMARK    5  A    between atoms: C_9  and  N_10
REMARK                            x       y       z     vdW  Elec       q    Type
REMARK                         _______ _______ _______ _____ _____    ______ ____
ROOT
ATOM      1  C   UNL     1       0.471  13.764  19.769  0.00  0.00    +0.044 C 
ATOM      2  C   UNL     1       1.917  13.641  20.152  0.00  0.00    -0.050 A 
ATOM      3  C   UNL     1       2.357  12.562  20.921  0.00  0.00    +0.007 A 
ATOM      4  C   UNL     1       3.698  12.464  21.304  0.00  0.00    +0.046 A 
ATOM      5  C   UNL     1       4.618  13.453  20.941  0.00  0.00    +0.124 A 
ATOM      6  C   UNL     1       4.187  14.551  20.175  0.00  0.00    +0.008 A 
ATOM      7  C   UNL     1       2.834  14.635  19.794  0.00  0.00    +0.012 A 
ENDROOT
BRANCH   5   8
ATOM      8  O   UNL     1       5.952  13.417  21.255  0.00  0.00    -0.495 OA
ATOM      9  C   UNL     1       6.290  13.418  22.636  0.00  0.00    +0.277 C 
ENDBRANCH   5   8
BRANCH   6  10
ATOM     10  C   UNL     1       5.141  15.660  19.770  0.00  0.00    +0.123 C 
BRANCH  10  11
ATOM     11  N   UNL     1       5.560  15.596  18.360  0.00  0.00    -0.296 NA
ATOM     12  C   UNL     1       7.028  15.574  18.202  0.00  0.00    +0.100 C 
ATOM     13  C   UNL     1       7.502  15.874  16.755  0.00  0.00    +0.096 C 
ATOM     14  N   UNL     1       6.435  15.698  15.755  0.00  0.00    -0.314 NA
ATOM     15  C   UNL     1       5.331  16.624  16.080  0.00  0.00    +0.096 C 
ATOM     16  C   UNL     1       4.985  16.711  17.589  0.00  0.00    +0.100 C 
ATOM     17  H   UNL     1       6.060  14.759  15.921  0.00  0.00    +0.122 HD
ENDBRANCH  10  11
ENDBRANCH   6  10
TORSDOF 3
ENDMDL
