MODEL 1
REMARK VINA RESULT:    -6.872      0.000      0.000
REMARK INTER + INTRA:          -8.601
REMARK INTER:                  -8.278
REMARK INTRA:                  -0.322
REMARK UNBOUND:                -0.322
REMARK  Name = 
REMARK  6 active torsions:
REMARK  status: ('A' for Active; 'I' for Inactive)
REMARK    1  A    between atoms: C_3  and  O_4
REMARK    2  A    between atoms: C_5  and  C_6
REMARK    3  A    between atoms: C_9  and  O_10
REMARK    4  A    between atoms: C_11  and  O_12
REMARK    5  A    between atoms: C_17  and  O_18
REMARK    6  A    between atoms: C_20  and  O_21
REMARK                            x       y       z     vdW  Elec       q    Type
REMARK                         _______ _______ _______ _____ _____    ______ ____
ROOT
ATOM      1  O   UNL     1      21.160  55.740   6.042  0.00  0.00    -0.283 OA
ATOM      2  C   UNL     1      20.336  54.872   5.764  0.00  0.00    +0.238 A 
ATOM      3  C   UNL     1      18.890  55.113   5.972  0.00  0.00    +0.208 A 
ATOM      4  C   UNL     1      18.023  54.132   5.662  0.00  0.00    +0.181 A 
ATOM      5  O   UNL     1      18.401  52.890   5.168  0.00  0.00    -0.451 OA
ATOM      6  C   UNL     1      19.732  52.641   4.947  0.00  0.00    +0.147 A 
ATOM      7  C   UNL     1      20.062  51.389   4.425  0.00  0.00    +0.092 A 
ATOM      8  C   UNL     1      21.400  51.083   4.186  0.00  0.00    +0.124 A 
ATOM      9  C   UNL     1      22.406  52.004   4.461  0.00  0.00    +0.091 A 
ATOM     10  C   UNL     1      22.072  53.252   4.979  0.00  0.00    +0.135 A 
ATOM     11  C   UNL     1      20.732  53.571   5.222  0.00  0.00    +0.109 A 
ENDROOT
BRANCH   4  12
ATOM     12  C   UNL     1      16.562  54.261   5.839  0.00  0.00    +0.025 A 
ATOM     13  C   UNL     1      15.720  54.578   4.757  0.00  0.00    +0.015 A 
ATOM     14  C   UNL     1      14.336  54.669   4.930  0.00  0.00    +0.050 A 
ATOM     15  C   UNL     1      13.794  54.439   6.183  0.00  0.00    +0.158 A 
ATOM     16  C   UNL     1      14.610  54.119   7.263  0.00  0.00    +0.159 A 
ATOM     17  C   UNL     1      15.989  54.024   7.101  0.00  0.00    +0.060 A 
BRANCH  15  18
ATOM     18  O   UNL     1      12.442  54.527   6.352  0.00  0.00    -0.503 OA
ATOM     19  H   UNL     1      12.242  55.478   6.243  0.00  0.00    +0.292 HD
ENDBRANCH  15  18
BRANCH  16  20
ATOM     20  O   UNL     1      14.008  53.904   8.472  0.00  0.00    -0.503 OA
ATOM     21  H   UNL     1      14.544  54.335   9.161  0.00  0.00    +0.292 HD
ENDBRANCH  16  20
ENDBRANCH   4  12
BRANCH   3  22
ATOM     22  O   UNL     1      18.523  56.341   6.492  0.00  0.00    -0.501 OA
ATOM     23  H   UNL     1      18.120  56.832   5.744  0.00  0.00    +0.292 HD
ENDBRANCH   3  22
BRANCH   8  24
ATOM     24  O   UNL     1      21.770  49.873   3.676  0.00  0.00    -0.507 OA
ATOM     25  H   UNL     1      21.815  49.220   4.394  0.00  0.00    +0.292 HD
ENDBRANCH   8  24
BRANCH  10  26
ATOM     26  O   UNL     1      23.102  54.117   5.229  0.00  0.00    -0.506 OA
ATOM     27  H   UNL     1      22.880  54.992   4.840  0.00  0.00    +0.292 HD
ENDBRANCH  10  26
TORSDOF 6
ENDMDL
MODEL 2
REMARK VINA RESULT:    -6.553     22.337     24.833
REMARK INTER + INTRA:          -8.216
REMARK INTER:                  -8.247
REMARK INTRA:                   0.031
REMARK UNBOUND:                -0.322
REMARK  Name = 
REMARK  6 active torsions:
REMARK  status: ('A' for Active; 'I' for Inactive)
REMARK    1  A    between atoms: C_3  and  O_4
REMARK    2  A    between atoms: C_5  and  C_6
REMARK    3  A    between atoms: C_9  and  O_10
REMARK    4  A    between atoms: C_11  and  O_12
REMARK    5  A    between atoms: C_17  and  O_18
REMARK    6  A    between atoms: C_20  and  O_21
REMARK                            x       y       z     vdW  Elec       q    Type
REMARK                         _______ _______ _______ _____ _____    ______ ____
ROOT
ATOM      1  O   UNL     1      28.654  36.917  14.120  0.00  0.00    -0.283 OA
ATOM      2  C   UNL     1      29.795  36.767  14.551  0.00  0.00    +0.238 A 
ATOM      3  C   UNL     1      30.906  36.424  13.634  0.00  0.00    +0.208 A 
ATOM      4  C   UNL     1      32.138  36.262  14.149  0.00  0.00    +0.181 A 
ATOM      5  O   UNL     1      32.437  36.384  15.501  0.00  0.00    -0.451 OA
ATOM      6  C   UNL     1      31.433  36.720  16.374  0.00  0.00    +0.147 A 
ATOM      7  C   UNL     1      31.785  36.856  17.718  0.00  0.00    +0.092 A 
ATOM      8  C   UNL     1      30.803  37.191  18.648  0.00  0.00    +0.124 A 
ATOM      9  C   UNL     1      29.482  37.388  18.255  0.00  0.00    +0.091 A 
ATOM     10  C   UNL     1      29.137  37.253  16.914  0.00  0.00    +0.135 A 
ATOM     11  C   UNL     1      30.115  36.918  15.971  0.00  0.00    +0.109 A 
ENDROOT
BRANCH   4  12
ATOM     12  C   UNL     1      33.316  35.909  13.329  0.00  0.00    +0.025 A 
ATOM     13  C   UNL     1      33.233  34.942  12.310  0.00  0.00    +0.015 A 
ATOM     14  C   UNL     1      34.345  34.636  11.521  0.00  0.00    +0.050 A 
ATOM     15  C   UNL     1      35.538  35.302  11.747  0.00  0.00    +0.158 A 
ATOM     16  C   UNL     1      35.637  36.265  12.746  0.00  0.00    +0.159 A 
ATOM     17  C   UNL     1      34.535  36.577  13.536  0.00  0.00    +0.060 A 
BRANCH  15  18
ATOM     18  O   UNL     1      36.625  35.005  10.976  0.00  0.00    -0.503 OA
ATOM     19  H   UNL     1      37.365  34.934  11.612  0.00  0.00    +0.292 HD
ENDBRANCH  15  18
BRANCH  16  20
ATOM     20  O   UNL     1      36.846  36.883  12.915  0.00  0.00    -0.503 OA
ATOM     21  H   UNL     1      37.383  36.725  12.119  0.00  0.00    +0.292 HD
ENDBRANCH  16  20
ENDBRANCH   4  12
BRANCH   3  22
ATOM     22  O   UNL     1      30.597  36.276  12.295  0.00  0.00    -0.501 OA
ATOM     23  H   UNL     1      30.806  35.342  12.079  0.00  0.00    +0.292 HD
ENDBRANCH   3  22
BRANCH   8  24
ATOM     24  O   UNL     1      31.100  37.336  19.970  0.00  0.00    -0.507 OA
ATOM     25  H   UNL     1      30.570  36.711  20.491  0.00  0.00    +0.292 HD
ENDBRANCH   8  24
BRANCH  10  26
ATOM     26  O   UNL     1      27.825  37.459  16.586  0.00  0.00    -0.506 OA
ATOM     27  H   UNL     1      27.509  36.697  16.052  0.00  0.00    +0.292 HD
ENDBRANCH  10  26
TORSDOF 6
ENDMDL
MODEL 3
REMARK VINA RESULT:    -6.073     21.686     24.557
REMARK INTER + INTRA:          -7.638
REMARK INTER:                  -7.555
REMARK INTRA:                  -0.083
REMARK UNBOUND:                -0.322
REMARK  Name = 
REMARK  6 active torsions:
REMARK  status: ('A' for Active; 'I' for Inactive)
REMARK    1  A    between atoms: C_3  and  O_4
REMARK    2  A    between atoms: C_5  and  C_6
REMARK    3  A    between atoms: C_9  and  O_10
REMARK    4  A    between atoms: C_11  and  O_12
REMARK    5  A    between atoms: C_17  and  O_18
REMARK    6  A    between atoms: C_20  and  O_21
REMARK                            x       y       z     vdW  Elec       q    Type
REMARK                         _______ _______ _______ _____ _____    ______ ____
ROOT
ATOM      1  O   UNL     1      33.801  33.644  17.208  0.00  0.00    -0.283 OA
ATOM      2  C   UNL     1      33.406  34.494  16.412  0.00  0.00    +0.238 A 
ATOM      3  C   UNL     1      32.029  35.032  16.509  0.00  0.00    +0.208 A 
ATOM      4  C   UNL     1      31.635  35.954  15.613  0.00  0.00    +0.181 A 
ATOM      5  O   UNL     1      32.438  36.432  14.585  0.00  0.00    -0.451 OA
ATOM      6  C   UNL     1      33.725  35.967  14.480  0.00  0.00    +0.147 A 
ATOM      7  C   UNL     1      34.503  36.494  13.446  0.00  0.00    +0.092 A 
ATOM      8  C   UNL     1      35.816  36.053  13.292  0.00  0.00    +0.124 A 
ATOM      9  C   UNL     1      36.357  35.098  14.148  0.00  0.00    +0.091 A 
ATOM     10  C   UNL     1      35.578  34.578  15.177  0.00  0.00    +0.135 A 
ATOM     11  C   UNL     1      34.259  35.014  15.343  0.00  0.00    +0.109 A 
ENDROOT
BRANCH   4  12
ATOM     12  C   UNL     1      30.282  36.549  15.610  0.00  0.00    +0.025 A 
ATOM     13  C   UNL     1      29.460  36.490  14.470  0.00  0.00    +0.015 A 
ATOM     14  C   UNL     1      28.171  37.030  14.488  0.00  0.00    +0.050 A 
ATOM     15  C   UNL     1      27.703  37.625  15.647  0.00  0.00    +0.158 A 
ATOM     16  C   UNL     1      28.500  37.688  16.786  0.00  0.00    +0.159 A 
ATOM     17  C   UNL     1      29.784  37.152  16.779  0.00  0.00    +0.060 A 
BRANCH  15  18
ATOM     18  O   UNL     1      26.444  38.152  15.665  0.00  0.00    -0.503 OA
ATOM     19  H   UNL     1      26.164  38.153  14.728  0.00  0.00    +0.292 HD
ENDBRANCH  15  18
BRANCH  16  20
ATOM     20  O   UNL     1      27.974  38.291  17.896  0.00  0.00    -0.503 OA
ATOM     21  H   UNL     1      27.189  38.798  17.624  0.00  0.00    +0.292 HD
ENDBRANCH  16  20
ENDBRANCH   4  12
BRANCH   3  22
ATOM     22  O   UNL     1      31.225  34.531  17.517  0.00  0.00    -0.501 OA
ATOM     23  H   UNL     1      31.093  33.584  17.300  0.00  0.00    +0.292 HD
ENDBRANCH   3  22
BRANCH   8  24
ATOM     24  O   UNL     1      36.614  36.540  12.299  0.00  0.00    -0.507 OA
ATOM     25  H   UNL     1      36.273  37.400  12.003  0.00  0.00    +0.292 HD
ENDBRANCH   8  24
BRANCH  10  26
ATOM     26  O   UNL     1      36.162  33.643  15.987  0.00  0.00    -0.506 OA
ATOM     27  H   UNL     1      35.475  33.003  16.277  0.00  0.00    +0.292 HD
ENDBRANCH  10  26
TORSDOF 6
ENDMDL
MODEL 4
REMARK VINA RESULT:    -6.058     21.934     25.190
REMARK INTER + INTRA:          -7.619
REMARK INTER:                  -7.645
REMARK INTRA:                   0.025
REMARK UNBOUND:                -0.322
REMARK  Name = 
REMARK  6 active torsions:
REMARK  status: ('A' for Active; 'I' for Inactive)
REMARK    1  A    between atoms: C_3  and  O_4
REMARK    2  A    between atoms: C_5  and  C_6
REMARK    3  A    between atoms: C_9  and  O_10
REMARK    4  A    between atoms: C_11  and  O_12
REMARK    5  A    between atoms: C_17  and  O_18
REMARK    6  A    between atoms: C_20  and  O_21
REMARK                            x       y       z     vdW  Elec       q    Type
REMARK                         _______ _______ _______ _____ _____    ______ ____
ROOT
ATOM      1  O   UNL     1      29.763  36.229  12.842  0.00  0.00    -0.283 OA
ATOM      2  C   UNL     1      30.451  36.344  13.855  0.00  0.00    +0.238 A 
ATOM      3  C   UNL     1      31.915  36.130  13.798  0.00  0.00    +0.208 A 
ATOM      4  C   UNL     1      32.628  36.259  14.931  0.00  0.00    +0.181 A 
ATOM      5  O   UNL     1      32.074  36.569  16.167  0.00  0.00    -0.451 OA
ATOM      6  C   UNL     1      30.722  36.792  16.249  0.00  0.00    +0.147 A 
ATOM      7  C   UNL     1      30.213  37.126  17.506  0.00  0.00    +0.092 A 
ATOM      8  C   UNL     1      28.847  37.358  17.647  0.00  0.00    +0.124 A 
ATOM      9  C   UNL     1      27.987  37.259  16.556  0.00  0.00    +0.091 A 
ATOM     10  C   UNL     1      28.500  36.927  15.306  0.00  0.00    +0.135 A 
ATOM     11  C   UNL     1      29.870  36.694  15.152  0.00  0.00    +0.109 A 
ENDROOT
BRANCH   4  12
ATOM     12  C   UNL     1      34.091  36.057  14.991  0.00  0.00    +0.025 A 
ATOM     13  C   UNL     1      34.679  35.263  15.992  0.00  0.00    +0.015 A 
ATOM     14  C   UNL     1      36.061  35.055  16.022  0.00  0.00    +0.050 A 
ATOM     15  C   UNL     1      36.854  35.638  15.048  0.00  0.00    +0.158 A 
ATOM     16  C   UNL     1      36.289  36.422  14.046  0.00  0.00    +0.159 A 
ATOM     17  C   UNL     1      34.914  36.633  14.008  0.00  0.00    +0.060 A 
BRANCH  15  18
ATOM     18  O   UNL     1      38.203  35.435  15.076  0.00  0.00    -0.503 OA
ATOM     19  H   UNL     1      38.314  34.489  14.855  0.00  0.00    +0.292 HD
ENDBRANCH  15  18
BRANCH  16  20
ATOM     20  O   UNL     1      37.131  36.967  13.117  0.00  0.00    -0.503 OA
ATOM     21  H   UNL     1      37.778  36.289  12.856  0.00  0.00    +0.292 HD
ENDBRANCH  16  20
ENDBRANCH   4  12
BRANCH   3  22
ATOM     22  O   UNL     1      32.457  35.793  12.571  0.00  0.00    -0.501 OA
ATOM     23  H   UNL     1      32.583  34.821  12.599  0.00  0.00    +0.292 HD
ENDBRANCH   3  22
BRANCH   8  24
ATOM     24  O   UNL     1      28.305  37.689  18.853  0.00  0.00    -0.507 OA
ATOM     25  H   UNL     1      28.539  37.011  19.509  0.00  0.00    +0.292 HD
ENDBRANCH   8  24
BRANCH  10  26
ATOM     26  O   UNL     1      27.608  36.846  14.271  0.00  0.00    -0.506 OA
ATOM     27  H   UNL     1      27.038  37.646  14.282  0.00  0.00    +0.292 HD
ENDBRANCH  10  26
TORSDOF 6
ENDMDL
MODEL 5
REMARK VINA RESULT:    -6.028     22.467     25.170
REMARK INTER + INTRA:          -7.584
REMARK INTER:                  -7.357
REMARK INTRA:                  -0.227
REMARK UNBOUND:                -0.322
REMARK  Name = 
REMARK  6 active torsions:
REMARK  status: ('A' for Active; 'I' for Inactive)
REMARK    1  A    between atoms: C_3  and  O_4
REMARK    2  A    between atoms: C_5  and  C_6
REMARK    3  A    between atoms: C_9  and  O_10
REMARK    4  A    between atoms: C_11  and  O_12
REMARK    5  A    between atoms: C_17  and  O_18
REMARK    6  A    between atoms: C_20  and  O_21
REMARK                            x       y       z     vdW  Elec       q    Type
REMARK                         _______ _______ _______ _____ _____    ______ ____
ROOT
ATOM      1  O   UNL     1      28.421  36.872  14.299  0.00  0.00    -0.283 OA
ATOM      2  C   UNL     1      29.429  36.448  14.861  0.00  0.00    +0.238 A 
ATOM      3  C   UNL     1      30.763  36.615  14.239  0.00  0.00    +0.208 A 
ATOM      4  C   UNL     1      31.838  36.129  14.885  0.00  0.00    +0.181 A 
ATOM      5  O   UNL     1      31.778  35.463  16.103  0.00  0.00    -0.451 OA
ATOM      6  C   UNL     1      30.559  35.309  16.714  0.00  0.00    +0.147 A 
ATOM      7  C   UNL     1      30.550  34.656  17.948  0.00  0.00    +0.092 A 
ATOM      8  C   UNL     1      29.338  34.469  18.610  0.00  0.00    +0.124 A 
ATOM      9  C   UNL     1      28.142  34.920  18.057  0.00  0.00    +0.091 A 
ATOM     10  C   UNL     1      28.157  35.572  16.827  0.00  0.00    +0.135 A 
ATOM     11  C   UNL     1      29.368  35.767  16.155  0.00  0.00    +0.109 A 
ENDROOT
BRANCH   4  12
ATOM     12  C   UNL     1      33.213  36.230  14.352  0.00  0.00    +0.025 A 
ATOM     13  C   UNL     1      34.190  37.014  14.994  0.00  0.00    +0.015 A 
ATOM     14  C   UNL     1      35.494  37.079  14.497  0.00  0.00    +0.050 A 
ATOM     15  C   UNL     1      35.824  36.357  13.363  0.00  0.00    +0.158 A 
ATOM     16  C   UNL     1      34.872  35.572  12.718  0.00  0.00    +0.159 A 
ATOM     17  C   UNL     1      33.571  35.500  13.206  0.00  0.00    +0.060 A 
BRANCH  15  18
ATOM     18  O   UNL     1      37.098  36.420  12.878  0.00  0.00    -0.503 OA
ATOM     19  H   UNL     1      37.585  35.735  13.378  0.00  0.00    +0.292 HD
ENDBRANCH  15  18
BRANCH  16  20
ATOM     20  O   UNL     1      35.266  34.886  11.603  0.00  0.00    -0.503 OA
ATOM     21  H   UNL     1      34.658  35.109  10.876  0.00  0.00    +0.292 HD
ENDBRANCH  16  20
ENDBRANCH   4  12
BRANCH   3  22
ATOM     22  O   UNL     1      30.813  37.252  13.014  0.00  0.00    -0.501 OA
ATOM     23  H   UNL     1      31.580  36.859  12.545  0.00  0.00    +0.292 HD
ENDBRANCH   3  22
BRANCH   8  24
ATOM     24  O   UNL     1      29.280  33.839  19.818  0.00  0.00    -0.507 OA
ATOM     25  H   UNL     1      28.748  33.030  19.735  0.00  0.00    +0.292 HD
ENDBRANCH   8  24
BRANCH  10  26
ATOM     26  O   UNL     1      26.953  35.994  16.333  0.00  0.00    -0.506 OA
ATOM     27  H   UNL     1      26.363  35.215  16.234  0.00  0.00    +0.292 HD
ENDBRANCH  10  26
TORSDOF 6
ENDMDL
MODEL 6
REMARK VINA RESULT:    -5.478      5.832      9.326
REMARK INTER + INTRA:          -6.921
REMARK INTER:                  -6.624
REMARK INTRA:                  -0.297
REMARK UNBOUND:                -0.322
REMARK  Name = 
REMARK  6 active torsions:
REMARK  status: ('A' for Active; 'I' for Inactive)
REMARK    1  A    between atoms: C_3  and  O_4
REMARK    2  A    between atoms: C_5  and  C_6
REMARK    3  A    between atoms: C_9  and  O_10
REMARK    4  A    between atoms: C_11  and  O_12
REMARK    5  A    between atoms: C_17  and  O_18
REMARK    6  A    between atoms: C_20  and  O_21
REMARK                            x       y       z     vdW  Elec       q    Type
REMARK                         _______ _______ _______ _____ _____    ______ ____
ROOT
ATOM      1  O   UNL     1      29.063  50.819   1.328  0.00  0.00    -0.283 OA
ATOM      2  C   UNL     1      28.334  50.520   2.271  0.00  0.00    +0.238 A 
ATOM      3  C   UNL     1      26.927  50.982   2.310  0.00  0.00    +0.208 A 
ATOM      4  C   UNL     1      26.167  50.638   3.365  0.00  0.00    +0.181 A 
ATOM      5  O   UNL     1      26.622  49.882   4.438  0.00  0.00    -0.451 OA
ATOM      6  C   UNL     1      27.915  49.424   4.423  0.00  0.00    +0.147 A 
ATOM      7  C   UNL     1      28.322  48.647   5.510  0.00  0.00    +0.092 A 
ATOM      8  C   UNL     1      29.626  48.159   5.548  0.00  0.00    +0.124 A 
ATOM      9  C   UNL     1      30.525  48.438   4.522  0.00  0.00    +0.091 A 
ATOM     10  C   UNL     1      30.115  49.211   3.440  0.00  0.00    +0.135 A 
ATOM     11  C   UNL     1      28.807  49.704   3.391  0.00  0.00    +0.109 A 
ENDROOT
BRANCH   4  12
ATOM     12  C   UNL     1      24.755  51.053   3.511  0.00  0.00    +0.025 A 
ATOM     13  C   UNL     1      24.414  52.366   3.884  0.00  0.00    +0.015 A 
ATOM     14  C   UNL     1      23.076  52.755   3.991  0.00  0.00    +0.050 A 
ATOM     15  C   UNL     1      22.080  51.833   3.720  0.00  0.00    +0.158 A 
ATOM     16  C   UNL     1      22.398  50.531   3.344  0.00  0.00    +0.159 A 
ATOM     17  C   UNL     1      23.728  50.135   3.233  0.00  0.00    +0.060 A 
BRANCH  15  18
ATOM     18  O   UNL     1      20.773  52.212   3.823  0.00  0.00    -0.503 OA
ATOM     19  H   UNL     1      20.265  51.421   3.554  0.00  0.00    +0.292 HD
ENDBRANCH  15  18
BRANCH  16  20
ATOM     20  O   UNL     1      21.364  49.673   3.091  0.00  0.00    -0.503 OA
ATOM     21  H   UNL     1      20.953  49.930   2.247  0.00  0.00    +0.292 HD
ENDBRANCH  16  20
ENDBRANCH   4  12
BRANCH   3  22
ATOM     22  O   UNL     1      26.488  51.758   1.254  0.00  0.00    -0.501 OA
ATOM     23  H   UNL     1      25.800  52.347   1.629  0.00  0.00    +0.292 HD
ENDBRANCH   3  22
BRANCH   8  24
ATOM     24  O   UNL     1      30.067  47.395   6.587  0.00  0.00    -0.507 OA
ATOM     25  H   UNL     1      29.636  47.685   7.408  0.00  0.00    +0.292 HD
ENDBRANCH   8  24
BRANCH  10  26
ATOM     26  O   UNL     1      31.040  49.452   2.461  0.00  0.00    -0.506 OA
ATOM     27  H   UNL     1      31.921  49.156   2.781  0.00  0.00    +0.292 HD
ENDBRANCH  10  26
TORSDOF 6
ENDMDL
MODEL 7
REMARK VINA RESULT:    -4.984     16.255     17.240
REMARK INTER + INTRA:          -6.325
REMARK INTER:                  -5.993
REMARK INTRA:                  -0.332
REMARK UNBOUND:                -0.322
REMARK  Name = 
REMARK  6 active torsions:
REMARK  status: ('A' for Active; 'I' for Inactive)
REMARK    1  A    between atoms: C_3  and  O_4
REMARK    2  A    between atoms: C_5  and  C_6
REMARK    3  A    between atoms: C_9  and  O_10
REMARK    4  A    between atoms: C_11  and  O_12
REMARK    5  A    between atoms: C_17  and  O_18
REMARK    6  A    between atoms: C_20  and  O_21
REMARK                            x       y       z     vdW  Elec       q    Type
REMARK                         _______ _______ _______ _____ _____    ______ ____
ROOT
ATOM      1  O   UNL     1      20.991  45.278  23.227  0.00  0.00    -0.283 OA
ATOM      2  C   UNL     1      20.270  45.230  22.233  0.00  0.00    +0.238 A 
ATOM      3  C   UNL     1      19.176  46.211  22.049  0.00  0.00    +0.208 A 
ATOM      4  C   UNL     1      18.406  46.117  20.950  0.00  0.00    +0.181 A 
ATOM      5  O   UNL     1      18.562  45.141  19.973  0.00  0.00    -0.451 OA
ATOM      6  C   UNL     1      19.578  44.228  20.105  0.00  0.00    +0.147 A 
ATOM      7  C   UNL     1      19.712  43.282  19.087  0.00  0.00    +0.092 A 
ATOM      8  C   UNL     1      20.725  42.329  19.173  0.00  0.00    +0.124 A 
ATOM      9  C   UNL     1      21.597  42.307  20.258  0.00  0.00    +0.091 A 
ATOM     10  C   UNL     1      21.460  43.253  21.269  0.00  0.00    +0.135 A 
ATOM     11  C   UNL     1      20.449  44.216  21.192  0.00  0.00    +0.109 A 
ENDROOT
BRANCH   4  12
ATOM     12  C   UNL     1      17.282  47.035  20.671  0.00  0.00    +0.025 A 
ATOM     13  C   UNL     1      15.981  46.758  21.128  0.00  0.00    +0.015 A 
ATOM     14  C   UNL     1      14.931  47.647  20.884  0.00  0.00    +0.050 A 
ATOM     15  C   UNL     1      15.184  48.817  20.188  0.00  0.00    +0.158 A 
ATOM     16  C   UNL     1      16.466  49.112  19.734  0.00  0.00    +0.159 A 
ATOM     17  C   UNL     1      17.518  48.232  19.973  0.00  0.00    +0.060 A 
BRANCH  15  18
ATOM     18  O   UNL     1      14.160  49.687  19.950  0.00  0.00    -0.503 OA
ATOM     19  H   UNL     1      13.430  49.370  20.519  0.00  0.00    +0.292 HD
ENDBRANCH  15  18
BRANCH  16  20
ATOM     20  O   UNL     1      16.644  50.284  19.053  0.00  0.00    -0.503 OA
ATOM     21  H   UNL     1      16.215  50.998  19.556  0.00  0.00    +0.292 HD
ENDBRANCH  16  20
ENDBRANCH   4  12
BRANCH   3  22
ATOM     22  O   UNL     1      19.008  47.162  23.038  0.00  0.00    -0.501 OA
ATOM     23  H   UNL     1      19.699  47.837  22.873  0.00  0.00    +0.292 HD
ENDBRANCH   3  22
BRANCH   8  24
ATOM     24  O   UNL     1      20.896  41.387  18.203  0.00  0.00    -0.507 OA
ATOM     25  H   UNL     1      20.109  40.817  18.163  0.00  0.00    +0.292 HD
ENDBRANCH   8  24
BRANCH  10  26
ATOM     26  O   UNL     1      22.346  43.184  22.309  0.00  0.00    -0.506 OA
ATOM     27  H   UNL     1      22.653  42.255  22.401  0.00  0.00    +0.292 HD
ENDBRANCH  10  26
TORSDOF 6
ENDMDL
MODEL 8
REMARK VINA RESULT:    -4.862     19.138     20.191
REMARK INTER + INTRA:          -6.178
REMARK INTER:                  -5.845
REMARK INTRA:                  -0.333
REMARK UNBOUND:                -0.322
REMARK  Name = 
REMARK  6 active torsions:
REMARK  status: ('A' for Active; 'I' for Inactive)
REMARK    1  A    between atoms: C_3  and  O_4
REMARK    2  A    between atoms: C_5  and  C_6
REMARK    3  A    between atoms: C_9  and  O_10
REMARK    4  A    between atoms: C_11  and  O_12
REMARK    5  A    between atoms: C_17  and  O_18
REMARK    6  A    between atoms: C_20  and  O_21
REMARK                            x       y       z     vdW  Elec       q    Type
REMARK                         _______ _______ _______ _____ _____    ______ ____
ROOT
ATOM      1  O   UNL     1      24.467  39.147  22.332  0.00  0.00    -0.283 OA
ATOM      2  C   UNL     1      23.684  39.601  21.500  0.00  0.00    +0.238 A 
ATOM      3  C   UNL     1      23.185  40.991  21.617  0.00  0.00    +0.208 A 
ATOM      4  C   UNL     1      22.323  41.444  20.690  0.00  0.00    +0.181 A 
ATOM      5  O   UNL     1      21.855  40.683  19.625  0.00  0.00    -0.451 OA
ATOM      6  C   UNL     1      22.313  39.398  19.478  0.00  0.00    +0.147 A 
ATOM      7  C   UNL     1      21.835  38.679  18.380  0.00  0.00    +0.092 A 
ATOM      8  C   UNL     1      22.264  37.368  18.186  0.00  0.00    +0.124 A 
ATOM      9  C   UNL     1      23.157  36.768  19.070  0.00  0.00    +0.091 A 
ATOM     10  C   UNL     1      23.631  37.489  20.162  0.00  0.00    +0.135 A 
ATOM     11  C   UNL     1      23.209  38.807  20.366  0.00  0.00    +0.109 A 
ENDROOT
BRANCH   4  12
ATOM     12  C   UNL     1      21.754  42.808  20.715  0.00  0.00    +0.025 A 
ATOM     13  C   UNL     1      20.605  43.107  21.469  0.00  0.00    +0.015 A 
ATOM     14  C   UNL     1      20.092  44.406  21.510  0.00  0.00    +0.050 A 
ATOM     15  C   UNL     1      20.733  45.408  20.801  0.00  0.00    +0.158 A 
ATOM     16  C   UNL     1      21.875  45.133  20.054  0.00  0.00    +0.159 A 
ATOM     17  C   UNL     1      22.393  43.842  20.009  0.00  0.00    +0.060 A 
BRANCH  15  18
ATOM     18  O   UNL     1      20.234  46.678  20.841  0.00  0.00    -0.503 OA
ATOM     19  H   UNL     1      20.918  47.196  21.310  0.00  0.00    +0.292 HD
ENDBRANCH  15  18
BRANCH  16  20
ATOM     20  O   UNL     1      22.457  46.170  19.378  0.00  0.00    -0.503 OA
ATOM     21  H   UNL     1      21.914  46.365  18.594  0.00  0.00    +0.292 HD
ENDBRANCH  16  20
ENDBRANCH   4  12
BRANCH   3  22
ATOM     22  O   UNL     1      23.631  41.733  22.695  0.00  0.00    -0.501 OA
ATOM     23  H   UNL     1      23.245  41.303  23.487  0.00  0.00    +0.292 HD
ENDBRANCH   3  22
BRANCH   8  24
ATOM     24  O   UNL     1      21.827  36.629  17.128  0.00  0.00    -0.507 OA
ATOM     25  H   UNL     1      20.982  36.206  17.356  0.00  0.00    +0.292 HD
ENDBRANCH   8  24
BRANCH  10  26
ATOM     26  O   UNL     1      24.507  36.849  20.997  0.00  0.00    -0.506 OA
ATOM     27  H   UNL     1      24.593  37.372  21.824  0.00  0.00    +0.292 HD
ENDBRANCH  10  26
TORSDOF 6
ENDMDL
MODEL 9
REMARK VINA RESULT:    -4.377     28.430     31.550
REMARK INTER + INTRA:          -5.595
REMARK INTER:                  -5.295
REMARK INTRA:                  -0.300
REMARK UNBOUND:                -0.322
REMARK  Name = 
REMARK  6 active torsions:
REMARK  status: ('A' for Active; 'I' for Inactive)
REMARK    1  A    between atoms: C_3  and  O_4
REMARK    2  A    between atoms: C_5  and  C_6
REMARK    3  A    between atoms: C_9  and  O_10
REMARK    4  A    between atoms: C_11  and  O_12
REMARK    5  A    between atoms: C_17  and  O_18
REMARK    6  A    between atoms: C_20  and  O_21
REMARK                            x       y       z     vdW  Elec       q    Type
REMARK                         _______ _______ _______ _____ _____    ______ ____
ROOT
ATOM      1  O   UNL     1      44.621  41.664   8.548  0.00  0.00    -0.283 OA
ATOM      2  C   UNL     1      44.653  40.448   8.370  0.00  0.00    +0.238 A 
ATOM      3  C   UNL     1      45.567  39.860   7.363  0.00  0.00    +0.208 A 
ATOM      4  C   UNL     1      45.564  38.526   7.195  0.00  0.00    +0.181 A 
ATOM      5  O   UNL     1      44.742  37.655   7.901  0.00  0.00    -0.451 OA
ATOM      6  C   UNL     1      43.898  38.167   8.853  0.00  0.00    +0.147 A 
ATOM      7  C   UNL     1      43.109  37.252   9.555  0.00  0.00    +0.092 A 
ATOM      8  C   UNL     1      42.231  37.719  10.530  0.00  0.00    +0.124 A 
ATOM      9  C   UNL     1      42.128  39.079  10.810  0.00  0.00    +0.091 A 
ATOM     10  C   UNL     1      42.917  39.986  10.109  0.00  0.00    +0.135 A 
ATOM     11  C   UNL     1      43.804  39.529   9.129  0.00  0.00    +0.109 A 
ENDROOT
BRANCH   4  12
ATOM     12  C   UNL     1      46.426  37.835   6.213  0.00  0.00    +0.025 A 
ATOM     13  C   UNL     1      47.798  37.639   6.455  0.00  0.00    +0.015 A 
ATOM     14  C   UNL     1      48.598  36.960   5.533  0.00  0.00    +0.050 A 
ATOM     15  C   UNL     1      48.025  36.470   4.372  0.00  0.00    +0.158 A 
ATOM     16  C   UNL     1      46.669  36.648   4.118  0.00  0.00    +0.159 A 
ATOM     17  C   UNL     1      45.864  37.323   5.031  0.00  0.00    +0.060 A 
BRANCH  15  18
ATOM     18  O   UNL     1      48.806  35.805   3.471  0.00  0.00    -0.503 OA
ATOM     19  H   UNL     1      49.365  36.500   3.070  0.00  0.00    +0.292 HD
ENDBRANCH  15  18
BRANCH  16  20
ATOM     20  O   UNL     1      46.169  36.140   2.951  0.00  0.00    -0.503 OA
ATOM     21  H   UNL     1      45.469  35.501   3.172  0.00  0.00    +0.292 HD
ENDBRANCH  16  20
ENDBRANCH   4  12
BRANCH   3  22
ATOM     22  O   UNL     1      46.361  40.734   6.644  0.00  0.00    -0.501 OA
ATOM     23  H   UNL     1      46.792  41.307   7.313  0.00  0.00    +0.292 HD
ENDBRANCH   3  22
BRANCH   8  24
ATOM     24  O   UNL     1      41.443  36.864  11.241  0.00  0.00    -0.507 OA
ATOM     25  H   UNL     1      41.281  36.062  10.718  0.00  0.00    +0.292 HD
ENDBRANCH   8  24
BRANCH  10  26
ATOM     26  O   UNL     1      42.774  41.309  10.427  0.00  0.00    -0.506 OA
ATOM     27  H   UNL     1      42.125  41.389  11.160  0.00  0.00    +0.292 HD
ENDBRANCH  10  26
TORSDOF 6
ENDMDL
