MODEL 1
REMARK VINA RESULT:    -4.425      0.000      0.000
REMARK INTER + INTRA:          -5.874
REMARK INTER:                  -5.460
REMARK INTRA:                  -0.413
REMARK UNBOUND:                -0.413
REMARK  Name = 
REMARK  5 active torsions:
REMARK  status: ('A' for Active; 'I' for Inactive)
REMARK    1  A    between atoms: C_2  and  C_3
REMARK    2  A    between atoms: C_3  and  N_4
REMARK    3  A    between atoms: N_4  and  C_5
REMARK    4  A    between atoms: N_4  and  C_6
REMARK    5  A    between atoms: C_6  and  C_7
REMARK                            x       y       z     vdW  Elec       q    Type
REMARK                         _______ _______ _______ _____ _____    ______ ____
ROOT
ATOM      1  C   UNL     1      28.387  51.778   5.186  0.00  0.00    +0.120 C 
ENDROOT
BRANCH   1   2
ATOM      2  C   UNL     1      28.924  50.420   5.589  0.00  0.00    -0.033 A 
ATOM      3  C   UNL     1      28.048  49.373   5.917  0.00  0.00    +0.005 A 
ATOM      4  C   UNL     1      28.544  48.116   6.268  0.00  0.00    +0.000 A 
ATOM      5  C   UNL     1      29.918  47.890   6.288  0.00  0.00    +0.000 A 
ATOM      6  C   UNL     1      30.798  48.918   5.956  0.00  0.00    +0.000 A 
ATOM      7  C   UNL     1      30.305  50.176   5.604  0.00  0.00    +0.005 A 
ENDBRANCH   1   2
BRANCH   1   8
ATOM      8  N   UNL     1      27.888  51.834   3.798  0.00  0.00    -0.290 NA
ATOM      9  C   UNL     1      28.583  52.906   3.077  0.00  0.00    +0.106 C 
BRANCH   8  10
ATOM     10  C   UNL     1      26.430  52.042   3.774  0.00  0.00    +0.173 C 
BRANCH  10  12
ATOM     11  C   UNL     1      25.103  49.765   3.311  0.00  0.00    +0.005 C 
ATOM     12  C   UNL     1      25.700  50.787   3.515  0.00  0.00    -0.090 C 
ENDBRANCH  10  12
ENDBRANCH   8  10
ENDBRANCH   1   8
TORSDOF 4
ENDMDL
MODEL 2
REMARK VINA RESULT:    -4.127     16.965     18.192
REMARK INTER + INTRA:          -5.506
REMARK INTER:                  -5.090
REMARK INTRA:                  -0.416
REMARK UNBOUND:                -0.413
REMARK  Name = 
REMARK  5 active torsions:
REMARK  status: ('A' for Active; 'I' for Inactive)
REMARK    1  A    between atoms: C_2  and  C_3
REMARK    2  A    between atoms: C_3  and  N_4
REMARK    3  A    between atoms: N_4  and  C_5
REMARK    4  A    between atoms: N_4  and  C_6
REMARK    5  A    between atoms: C_6  and  C_7
REMARK                            x       y       z     vdW  Elec       q    Type
REMARK                         _______ _______ _______ _____ _____    ______ ____
ROOT
ATOM      1  C   UNL     1      33.323  36.674  14.104  0.00  0.00    +0.120 C 
ENDROOT
BRANCH   1   2
ATOM      2  C   UNL     1      31.892  36.712  14.603  0.00  0.00    -0.033 A 
ATOM      3  C   UNL     1      30.819  36.555  13.712  0.00  0.00    +0.005 A 
ATOM      4  C   UNL     1      29.503  36.570  14.176  0.00  0.00    +0.000 A 
ATOM      5  C   UNL     1      29.245  36.732  15.536  0.00  0.00    +0.000 A 
ATOM      6  C   UNL     1      30.302  36.879  16.432  0.00  0.00    +0.000 A 
ATOM      7  C   UNL     1      31.619  36.866  15.970  0.00  0.00    +0.005 A 
ENDBRANCH   1   2
BRANCH   1   8
ATOM      8  N   UNL     1      34.139  35.607  14.713  0.00  0.00    -0.290 NA
ATOM      9  C   UNL     1      35.558  35.878  14.460  0.00  0.00    +0.106 C 
BRANCH   8  10
ATOM     10  C   UNL     1      33.752  34.286  14.186  0.00  0.00    +0.173 C 
BRANCH  10  12
ATOM     11  C   UNL     1      33.929  34.187  11.518  0.00  0.00    +0.005 C 
ATOM     12  C   UNL     1      33.854  34.231  12.716  0.00  0.00    -0.090 C 
ENDBRANCH  10  12
ENDBRANCH   8  10
ENDBRANCH   1   8
TORSDOF 4
ENDMDL
MODEL 3
REMARK VINA RESULT:    -3.982     16.667     17.686
REMARK INTER + INTRA:          -5.326
REMARK INTER:                  -5.025
REMARK INTRA:                  -0.301
REMARK UNBOUND:                -0.413
REMARK  Name = 
REMARK  5 active torsions:
REMARK  status: ('A' for Active; 'I' for Inactive)
REMARK    1  A    between atoms: C_2  and  C_3
REMARK    2  A    between atoms: C_3  and  N_4
REMARK    3  A    between atoms: N_4  and  C_5
REMARK    4  A    between atoms: N_4  and  C_6
REMARK    5  A    between atoms: C_6  and  C_7
REMARK                            x       y       z     vdW  Elec       q    Type
REMARK                         _______ _______ _______ _____ _____    ______ ____
ROOT
ATOM      1  C   UNL     1      32.843  35.761  14.740  0.00  0.00    +0.120 C 
ENDROOT
BRANCH   1   2
ATOM      2  C   UNL     1      33.707  35.668  13.499  0.00  0.00    -0.033 A 
ATOM      3  C   UNL     1      33.473  34.674  12.537  0.00  0.00    +0.005 A 
ATOM      4  C   UNL     1      34.257  34.602  11.384  0.00  0.00    +0.000 A 
ATOM      5  C   UNL     1      35.277  35.528  11.176  0.00  0.00    +0.000 A 
ATOM      6  C   UNL     1      35.515  36.525  12.120  0.00  0.00    +0.000 A 
ATOM      7  C   UNL     1      34.732  36.599  13.273  0.00  0.00    +0.005 A 
ENDBRANCH   1   2
BRANCH   1   8
ATOM      8  N   UNL     1      32.369  37.127  15.035  0.00  0.00    -0.290 NA
ATOM      9  C   UNL     1      32.361  37.333  16.488  0.00  0.00    +0.106 C 
BRANCH   8  10
ATOM     10  C   UNL     1      31.030  37.352  14.463  0.00  0.00    +0.173 C 
BRANCH  10  12
ATOM     11  C   UNL     1      29.173  35.851  15.671  0.00  0.00    +0.005 C 
ATOM     12  C   UNL     1      30.004  36.528  15.128  0.00  0.00    -0.090 C 
ENDBRANCH  10  12
ENDBRANCH   8  10
ENDBRANCH   1   8
TORSDOF 4
ENDMDL
MODEL 4
REMARK VINA RESULT:    -3.945      1.753      3.485
REMARK INTER + INTRA:          -5.281
REMARK INTER:                  -4.952
REMARK INTRA:                  -0.329
REMARK UNBOUND:                -0.413
REMARK  Name = 
REMARK  5 active torsions:
REMARK  status: ('A' for Active; 'I' for Inactive)
REMARK    1  A    between atoms: C_2  and  C_3
REMARK    2  A    between atoms: C_3  and  N_4
REMARK    3  A    between atoms: N_4  and  C_5
REMARK    4  A    between atoms: N_4  and  C_6
REMARK    5  A    between atoms: C_6  and  C_7
REMARK                            x       y       z     vdW  Elec       q    Type
REMARK                         _______ _______ _______ _____ _____    ______ ____
ROOT
ATOM      1  C   UNL     1      28.474  52.163   4.461  0.00  0.00    +0.120 C 
ENDROOT
BRANCH   1   2
ATOM      2  C   UNL     1      28.071  50.781   4.932  0.00  0.00    -0.033 A 
ATOM      3  C   UNL     1      27.122  50.030   4.221  0.00  0.00    +0.005 A 
ATOM      4  C   UNL     1      26.767  48.749   4.645  0.00  0.00    +0.000 A 
ATOM      5  C   UNL     1      27.362  48.200   5.779  0.00  0.00    +0.000 A 
ATOM      6  C   UNL     1      28.312  48.932   6.490  0.00  0.00    +0.000 A 
ATOM      7  C   UNL     1      28.668  50.214   6.068  0.00  0.00    +0.005 A 
ENDBRANCH   1   2
BRANCH   1   8
ATOM      8  N   UNL     1      29.932  52.349   4.337  0.00  0.00    -0.290 NA
ATOM      9  C   UNL     1      30.212  53.733   3.938  0.00  0.00    +0.106 C 
BRANCH   8  10
ATOM     10  C   UNL     1      30.502  51.396   3.368  0.00  0.00    +0.173 C 
BRANCH  10  12
ATOM     11  C   UNL     1      32.506  49.978   4.430  0.00  0.00    +0.005 C 
ATOM     12  C   UNL     1      31.604  50.611   3.953  0.00  0.00    -0.090 C 
ENDBRANCH  10  12
ENDBRANCH   8  10
ENDBRANCH   1   8
TORSDOF 4
ENDMDL
MODEL 5
REMARK VINA RESULT:    -3.723      1.689      3.437
REMARK INTER + INTRA:          -5.007
REMARK INTER:                  -4.749
REMARK INTRA:                  -0.258
REMARK UNBOUND:                -0.413
REMARK  Name = 
REMARK  5 active torsions:
REMARK  status: ('A' for Active; 'I' for Inactive)
REMARK    1  A    between atoms: C_2  and  C_3
REMARK    2  A    between atoms: C_3  and  N_4
REMARK    3  A    between atoms: N_4  and  C_5
REMARK    4  A    between atoms: N_4  and  C_6
REMARK    5  A    between atoms: C_6  and  C_7
REMARK                            x       y       z     vdW  Elec       q    Type
REMARK                         _______ _______ _______ _____ _____    ______ ____
ROOT
ATOM      1  C   UNL     1      28.570  52.363   4.539  0.00  0.00    +0.120 C 
ENDROOT
BRANCH   1   2
ATOM      2  C   UNL     1      28.167  50.968   4.971  0.00  0.00    -0.033 A 
ATOM      3  C   UNL     1      27.207  50.244   4.247  0.00  0.00    +0.005 A 
ATOM      4  C   UNL     1      26.852  48.951   4.635  0.00  0.00    +0.000 A 
ATOM      5  C   UNL     1      27.457  48.364   5.744  0.00  0.00    +0.000 A 
ATOM      6  C   UNL     1      28.418  49.069   6.467  0.00  0.00    +0.000 A 
ATOM      7  C   UNL     1      28.775  50.363   6.081  0.00  0.00    +0.005 A 
ENDBRANCH   1   2
BRANCH   1   8
ATOM      8  N   UNL     1      29.008  52.448   3.133  0.00  0.00    -0.290 NA
ATOM      9  C   UNL     1      30.353  51.874   3.009  0.00  0.00    +0.106 C 
BRANCH   8  10
ATOM     10  C   UNL     1      28.986  53.844   2.661  0.00  0.00    +0.173 C 
BRANCH  10  12
ATOM     11  C   UNL     1      30.728  55.370   4.000  0.00  0.00    +0.005 C 
ATOM     12  C   UNL     1      29.945  54.688   3.397  0.00  0.00    -0.090 C 
ENDBRANCH  10  12
ENDBRANCH   8  10
ENDBRANCH   1   8
TORSDOF 4
ENDMDL
MODEL 6
REMARK VINA RESULT:    -3.630     18.758     21.088
REMARK INTER + INTRA:          -4.893
REMARK INTER:                  -4.501
REMARK INTRA:                  -0.391
REMARK UNBOUND:                -0.413
REMARK  Name = 
REMARK  5 active torsions:
REMARK  status: ('A' for Active; 'I' for Inactive)
REMARK    1  A    between atoms: C_2  and  C_3
REMARK    2  A    between atoms: C_3  and  N_4
REMARK    3  A    between atoms: N_4  and  C_5
REMARK    4  A    between atoms: N_4  and  C_6
REMARK    5  A    between atoms: C_6  and  C_7
REMARK                            x       y       z     vdW  Elec       q    Type
REMARK                         _______ _______ _______ _____ _____    ______ ____
ROOT
ATOM      1  C   UNL     1      35.984  34.512  15.402  0.00  0.00    +0.120 C 
ENDROOT
BRANCH   1   2
ATOM      2  C   UNL     1      35.384  34.467  14.011  0.00  0.00    -0.033 A 
ATOM      3  C   UNL     1      36.011  35.121  12.940  0.00  0.00    +0.005 A 
ATOM      4  C   UNL     1      35.468  35.062  11.655  0.00  0.00    +0.000 A 
ATOM      5  C   UNL     1      34.298  34.342  11.426  0.00  0.00    +0.000 A 
ATOM      6  C   UNL     1      33.670  33.681  12.479  0.00  0.00    +0.000 A 
ATOM      7  C   UNL     1      34.211  33.739  13.765  0.00  0.00    +0.005 A 
ENDBRANCH   1   2
BRANCH   1   8
ATOM      8  N   UNL     1      36.283  33.181  15.965  0.00  0.00    -0.290 NA
ATOM      9  C   UNL     1      36.306  33.269  17.429  0.00  0.00    +0.106 C 
BRANCH   8  10
ATOM     10  C   UNL     1      37.564  32.669  15.448  0.00  0.00    +0.173 C 
BRANCH  10  12
ATOM     11  C   UNL     1      39.607  34.285  16.061  0.00  0.00    +0.005 C 
ATOM     12  C   UNL     1      38.689  33.559  15.790  0.00  0.00    -0.090 C 
ENDBRANCH  10  12
ENDBRANCH   8  10
ENDBRANCH   1   8
TORSDOF 4
ENDMDL
MODEL 7
REMARK VINA RESULT:    -3.453     22.643     23.501
REMARK INTER + INTRA:          -4.673
REMARK INTER:                  -4.221
REMARK INTRA:                  -0.453
REMARK UNBOUND:                -0.413
REMARK  Name = 
REMARK  5 active torsions:
REMARK  status: ('A' for Active; 'I' for Inactive)
REMARK    1  A    between atoms: C_2  and  C_3
REMARK    2  A    between atoms: C_3  and  N_4
REMARK    3  A    between atoms: N_4  and  C_5
REMARK    4  A    between atoms: N_4  and  C_6
REMARK    5  A    between atoms: C_6  and  C_7
REMARK                            x       y       z     vdW  Elec       q    Type
REMARK                         _______ _______ _______ _____ _____    ______ ____
ROOT
ATOM      1  C   UNL     1      23.051  28.292  12.835  0.00  0.00    +0.120 C 
ENDROOT
BRANCH   1   2
ATOM      2  C   UNL     1      24.561  28.404  12.785  0.00  0.00    -0.033 A 
ATOM      3  C   UNL     1      25.304  28.588  13.961  0.00  0.00    +0.005 A 
ATOM      4  C   UNL     1      26.697  28.671  13.916  0.00  0.00    +0.000 A 
ATOM      5  C   UNL     1      27.362  28.563  12.697  0.00  0.00    +0.000 A 
ATOM      6  C   UNL     1      26.637  28.372  11.522  0.00  0.00    +0.000 A 
ATOM      7  C   UNL     1      25.244  28.290  11.565  0.00  0.00    +0.005 A 
ENDBRANCH   1   2
BRANCH   1   8
ATOM      8  N   UNL     1      22.354  29.221  11.925  0.00  0.00    -0.290 NA
ATOM      9  C   UNL     1      21.769  30.316  12.707  0.00  0.00    +0.106 C 
BRANCH   8  10
ATOM     10  C   UNL     1      21.319  28.516  11.148  0.00  0.00    +0.173 C 
BRANCH  10  12
ATOM     11  C   UNL     1      22.380  26.837   9.356  0.00  0.00    +0.005 C 
ATOM     12  C   UNL     1      21.907  27.593  10.160  0.00  0.00    -0.090 C 
ENDBRANCH  10  12
ENDBRANCH   8  10
ENDBRANCH   1   8
TORSDOF 4
ENDMDL
MODEL 8
REMARK VINA RESULT:    -3.402     23.213     25.404
REMARK INTER + INTRA:          -4.611
REMARK INTER:                  -4.145
REMARK INTRA:                  -0.466
REMARK UNBOUND:                -0.413
REMARK  Name = 
REMARK  5 active torsions:
REMARK  status: ('A' for Active; 'I' for Inactive)
REMARK    1  A    between atoms: C_2  and  C_3
REMARK    2  A    between atoms: C_3  and  N_4
REMARK    3  A    between atoms: N_4  and  C_5
REMARK    4  A    between atoms: N_4  and  C_6
REMARK    5  A    between atoms: C_6  and  C_7
REMARK                            x       y       z     vdW  Elec       q    Type
REMARK                         _______ _______ _______ _____ _____    ______ ____
ROOT
ATOM      1  C   UNL     1      24.248  25.495  11.207  0.00  0.00    +0.120 C 
ENDROOT
BRANCH   1   2
ATOM      2  C   UNL     1      25.375  26.435  11.584  0.00  0.00    -0.033 A 
ATOM      3  C   UNL     1      26.480  25.971  12.313  0.00  0.00    +0.005 A 
ATOM      4  C   UNL     1      27.527  26.834  12.642  0.00  0.00    +0.000 A 
ATOM      5  C   UNL     1      27.484  28.167  12.239  0.00  0.00    +0.000 A 
ATOM      6  C   UNL     1      26.396  28.638  11.507  0.00  0.00    +0.000 A 
ATOM      7  C   UNL     1      25.348  27.777  11.178  0.00  0.00    +0.005 A 
ENDBRANCH   1   2
BRANCH   1   8
ATOM      8  N   UNL     1      23.957  25.463   9.761  0.00  0.00    -0.290 NA
ATOM      9  C   UNL     1      22.553  25.829   9.542  0.00  0.00    +0.106 C 
BRANCH   8  10
ATOM     10  C   UNL     1      24.249  24.134   9.197  0.00  0.00    +0.173 C 
BRANCH  10  12
ATOM     11  C   UNL     1      26.881  23.686   9.029  0.00  0.00    +0.005 C 
ATOM     12  C   UNL     1      25.698  23.883   9.104  0.00  0.00    -0.090 C 
ENDBRANCH  10  12
ENDBRANCH   8  10
ENDBRANCH   1   8
TORSDOF 4
ENDMDL
MODEL 9
REMARK VINA RESULT:    -3.316     26.219     27.937
REMARK INTER + INTRA:          -4.505
REMARK INTER:                  -4.015
REMARK INTRA:                  -0.491
REMARK UNBOUND:                -0.413
REMARK  Name = 
REMARK  5 active torsions:
REMARK  status: ('A' for Active; 'I' for Inactive)
REMARK    1  A    between atoms: C_2  and  C_3
REMARK    2  A    between atoms: C_3  and  N_4
REMARK    3  A    between atoms: N_4  and  C_5
REMARK    4  A    between atoms: N_4  and  C_6
REMARK    5  A    between atoms: C_6  and  C_7
REMARK                            x       y       z     vdW  Elec       q    Type
REMARK                         _______ _______ _______ _____ _____    ______ ____
ROOT
ATOM      1  C   UNL     1      35.292  23.111  10.118  0.00  0.00    +0.120 C 
ENDROOT
BRANCH   1   2
ATOM      2  C   UNL     1      35.663  23.893   8.874  0.00  0.00    -0.033 A 
ATOM      3  C   UNL     1      34.813  24.894   8.379  0.00  0.00    +0.005 A 
ATOM      4  C   UNL     1      35.165  25.628   7.245  0.00  0.00    +0.000 A 
ATOM      5  C   UNL     1      36.373  25.375   6.598  0.00  0.00    +0.000 A 
ATOM      6  C   UNL     1      37.230  24.389   7.085  0.00  0.00    +0.000 A 
ATOM      7  C   UNL     1      36.879  23.654   8.219  0.00  0.00    +0.005 A 
ENDBRANCH   1   2
BRANCH   1   8
ATOM      8  N   UNL     1      36.330  23.132  11.166  0.00  0.00    -0.290 NA
ATOM      9  C   UNL     1      36.480  21.784  11.727  0.00  0.00    +0.106 C 
BRANCH   8  10
ATOM     10  C   UNL     1      35.991  24.106  12.219  0.00  0.00    +0.173 C 
BRANCH  10  12
ATOM     11  C   UNL     1      36.747  26.586  11.560  0.00  0.00    +0.005 C 
ATOM     12  C   UNL     1      36.403  25.474  11.855  0.00  0.00    -0.090 C 
ENDBRANCH  10  12
ENDBRANCH   8  10
ENDBRANCH   1   8
TORSDOF 4
ENDMDL
